
 Distributed Data Interface kickoff program.
 Initiating 16 compute processes on 16 nodes to run the following command:
 /home/daniilkh/GAMESS/gamess.00.x inp/7amc_tddft 

          ******************************************************
          *         GAMESS VERSION =  5 DEC 2014 (R1)          *
          *             FROM IOWA STATE UNIVERSITY             *
          * M.W.SCHMIDT, K.K.BALDRIDGE, J.A.BOATZ, S.T.ELBERT, *
          *   M.S.GORDON, J.H.JENSEN, S.KOSEKI, N.MATSUNAGA,   *
          *          K.A.NGUYEN, S.J.SU, T.L.WINDUS,           *
          *       TOGETHER WITH M.DUPUIS, J.A.MONTGOMERY       *
          *         J.COMPUT.CHEM.  14, 1347-1363(1993)        *
          **************** 64 BIT LINUX VERSION ****************

  SINCE 1993, STUDENTS AND POSTDOCS WORKING AT IOWA STATE UNIVERSITY
  AND ALSO IN THEIR VARIOUS JOBS AFTER LEAVING ISU HAVE MADE IMPORTANT
  CONTRIBUTIONS TO THE CODE:
     IVANA ADAMOVIC, CHRISTINE AIKENS, YURI ALEXEEV, POOJA ARORA,
     ANDREY ASADCHEV, ROB BELL, PRADIPTA BANDYOPADHYAY, JONATHAN BENTZ,
     BRETT BODE, KURT BRORSEN, CALEB CARLIN, GALINA CHABAN, WEI CHEN,
     CHEOL HO CHOI, PAUL DAY, ALBERT DEFUSCO, NUWAN DESILVA, TIM DUDLEY,
     DMITRI FEDOROV, GRAHAM FLETCHER, MARK FREITAG, KURT GLAESEMANN,
     DAN KEMP, GRANT MERRILL, NORIYUKI MINEZAWA, JONATHAN MULLIN,
     TAKESHI NAGATA, SEAN NEDD, HEATHER NETZLOFF, BOSILJKA NJEGIC, RYAN OLSON,
     MIKE PAK, SPENCER PRUITT, LUKE ROSKOP, JIM SHOEMAKER, LYUDMILA SLIPCHENKO,
     TONY SMITH, SAROM SOK, JIE SONG, TETSUYA TAKETSUGU, SIMON WEBB,
     PENG XU, SOOHAENG YOO, FEDERICO ZAHARIEV

  ADDITIONAL CODE HAS BEEN PROVIDED BY COLLABORATORS IN OTHER GROUPS:
     IOWA STATE UNIVERSITY:
          JOE IVANIC, AARON WEST, LAIMUTIS BYTAUTAS, KLAUS RUEDENBERG
     UNIVERSITY OF TOKYO: KIMIHIKO HIRAO, TAKAHITO NAKAJIMA,
          TAKAO TSUNEDA, MUNEAKI KAMIYA, SUSUMU YANAGISAWA,
          KIYOSHI YAGI, MAHITO CHIBA, SEIKEN TOKURA, NAOAKI KAWAKAMI
     UNIVERSITY OF AARHUS: FRANK JENSEN
     UNIVERSITY OF IOWA: VISVALDAS KAIRYS, HUI LI
     NATIONAL INST. OF STANDARDS AND TECHNOLOGY: WALT STEVENS, DAVID GARMER
     UNIVERSITY OF PISA: BENEDETTA MENNUCCI, JACOPO TOMASI
     UNIVERSITY OF MEMPHIS: HENRY KURTZ, PRAKASHAN KORAMBATH
     UNIVERSITY OF ALBERTA: TOBY ZENG, MARIUSZ KLOBUKOWSKI
     UNIVERSITY OF NEW ENGLAND: MARK SPACKMAN
     MIE UNIVERSITY: HIROAKI UMEDA
     NAT. INST. OF ADVANCED INDUSTRIAL SCIENCE AND TECHNOLOGY: KAZUO KITAURA
     MICHIGAN STATE UNIVERSITY:
          KAROL KOWALSKI, MARTA WLOCH, JEFFREY GOUR, JESSE LUTZ,
          WEI LI, PIOTR PIECUCH
     UNIVERSITY OF SILESIA: MONIKA MUSIAL, STANISLAW KUCHARSKI
     FACULTES UNIVERSITAIRES NOTRE-DAME DE LA PAIX:
          OLIVIER QUINET, BENOIT CHAMPAGNE
     UNIVERSITY OF CALIFORNIA - SANTA BARBARA: BERNARD KIRTMAN
     INSTITUTE FOR MOLECULAR SCIENCE:
          KAZUYA ISHIMURA, MICHIO KATOUDA, AND SHIGERU NAGASE
     UNIVERSITY OF NOTRE DAME: ANNA POMOGAEVA, DAN CHIPMAN
     KYUSHU UNIVERSITY:
          HARUYUKI NAKANO,
          FENG LONG GU, JACEK KORCHOWIEC, MARCIN MAKOWSKI, AND YURIKO AOKI,
          HIROTOSHI MORI AND EISAKU MIYOSHI
     PENNSYLVANIA STATE UNIVERSITY:
          TZVETELIN IORDANOV, CHET SWALINA, JONATHAN SKONE,
          SHARON HAMMES-SCHIFFER
     WASEDA UNIVERSITY:
          MASATO KOBAYASHI, TOMOKO AKAMA, TSUGUKI TOUMA,
          TAKESHI YOSHIKAWA, YASUHIRO IKABATA, HIROMI NAKAI
     NANJING UNIVERSITY: SHUHUA LI
     UNIVERSITY OF NEBRASKA:
          PEIFENG SU, DEJUN SI, NANDUN THELLAMUREGE, YALI WANG, HUI LI
     UNIVERSITY OF ZURICH: ROBERTO PEVERATI, KIM BALDRIDGE
     N. COPERNICUS UNIVERSITY AND JACKSON STATE UNIVERSITY:
          MARIA BARYSZ
     UNIVERSITY OF COPENHAGEN: CASPER STEINMANN
     TOKYO INSTITUTE OF TECHNOLOGY: HIROYA NAKATA
     NAGOYA UNIVERSITY: YOSHIO NISHIMOTO, STEPHAN IRLE


 PARALLEL VERSION RUNNING ON       16 PROCESSORS IN       16 NODES.

 EXECUTION OF GAMESS BEGUN Tue Oct 25 14:22:54 2016

            ECHO OF THE FIRST FEW INPUT CARDS -
 INPUT CARD>!   File created by MacMolPlt 7.6.2                                             
 INPUT CARD> $CONTRL SCFTYP=RHF RUNTYP=ENERGY EXETYP=RUN                                    
 INPUT CARD> DFTTYP=B3LYP MAXIT=100 MULT=1 TDDFT=EXCITE $END                                
 INPUT CARD> $SYSTEM TIMLIM=1440 MWORDS=400  $END                                           
 INPUT CARD> $BASIS GBASIS=N31 NGAUSS=6 NDFUNC=1 $END                                       
 INPUT CARD> $SCF DIRSCF=.TRUE. $END                                                        
 INPUT CARD> $TDDFT NSTATE=2  $END                                                          
 INPUT CARD> $DATA                                                                          
 INPUT CARD>Title                                                                           
 INPUT CARD>C1                                                                              
 INPUT CARD>C     6.0     1.15427     1.09400     0.00000                                   
 INPUT CARD>C     6.0    -0.04215     0.38435     0.00000                                   
 INPUT CARD>C     6.0    -0.08115    -1.01874     0.00000                                   
 INPUT CARD>C     6.0     1.14783    -1.70347     0.00000                                   
 INPUT CARD>C     6.0     2.34913    -1.01715     0.00000                                   
 INPUT CARD>C     6.0     2.36815     0.39668     0.00000                                   
 INPUT CARD>O     8.0    -1.19462     1.13458     0.00000                                   
 INPUT CARD>C     6.0    -2.46341     0.54836     0.00000                                   
 INPUT CARD>C     6.0    -2.50237    -0.90913     0.00000                                   
 INPUT CARD>C     6.0    -1.36926    -1.65288     0.00000                                   
 INPUT CARD>O     8.0    -3.43016     1.28747     0.00000                                   
 INPUT CARD>H     1.0    -3.49236    -1.35196     0.00000                                   
 INPUT CARD>H     1.0    -1.42347    -2.74082     0.00000                                   
 INPUT CARD>H     1.0     1.14741    -2.79222     0.00000                                   
 INPUT CARD>H     1.0     3.28959    -1.56439     0.00000                                   
 INPUT CARD>N     7.0     3.56465     1.07202     0.00000                                   
 INPUT CARD>H     1.0     1.12173     2.18078     0.00000                                   
 INPUT CARD>H     1.0     3.59479     2.07912     0.00000                                   
 INPUT CARD>H     1.0     4.44182     0.57685     0.00000                                   
 INPUT CARD> $END                                                                           
  400000000 WORDS OF MEMORY AVAILABLE

     BASIS OPTIONS
     -------------
     GBASIS=N31          IGAUSS=       6      POLAR=POPN31  
     NDFUNC=       1     NFFUNC=       0     DIFFSP=       F
     NPFUNC=       0      DIFFS=       F     BASNAM=        


     RUN TITLE
     ---------
 Title                                                                           

 THE POINT GROUP OF THE MOLECULE IS C1      
 THE ORDER OF THE PRINCIPAL AXIS IS     0

 ATOM      ATOMIC                      COORDINATES (BOHR)
           CHARGE         X                   Y                   Z
 C           6.0     2.1812540158        2.0673602306        0.0000000000
 C           6.0    -0.0796519504        0.7263161834        0.0000000000
 C           6.0    -0.1533512639       -1.9251394527        0.0000000000
 C           6.0     2.1690841805       -3.2190915283        0.0000000000
 C           6.0     4.4392120095       -1.9221347884        0.0000000000
 C           6.0     4.4751545978        0.7496165048        0.0000000000
 O           8.0    -2.2575044595        2.1440453111        0.0000000000
 C           6.0    -4.6551698954        1.0362501426        0.0000000000
 C           6.0    -4.7287936199       -1.7180065872        0.0000000000
 C           6.0    -2.5875262059       -3.1234902906        0.0000000000
 O           8.0    -6.4820624940        2.4329655174        0.0000000000
 H           1.0    -6.5996034505       -2.5548339464        0.0000000000
 H           1.0    -2.6899682517       -5.1793987817        0.0000000000
 H           1.0     2.1682904956       -5.2765306974        0.0000000000
 H           1.0     6.2164237119       -2.9562684379        0.0000000000
 N           7.0     6.7362117421        2.0258240534        0.0000000000
 H           1.0     2.1197623322        4.1210766395        0.0000000000
 H           1.0     6.7931680834        3.9289670956        0.0000000000
 H           1.0     8.3938226868        1.0900884360        0.0000000000

          INTERNUCLEAR DISTANCES (ANGS.)
          ------------------------------

                1 C          2 C          3 C          4 C          5 C     

   1 C       0.0000000    1.3910514 *  2.4474339 *  2.7974774 *  2.4258287 *
   2 C       1.3910514 *  0.0000000    1.4036319 *  2.4031323 *  2.7717183 *
   3 C       2.4474339 *  1.4036319 *  0.0000000    1.4068571 *  2.4302805 *
   4 C       2.7974774 *  2.4031323 *  1.4068571 *  0.0000000    1.3835306 *
   5 C       2.4258287 *  2.7717183 *  2.4302805 *  1.3835306 *  0.0000000  
   6 C       1.3999142 *  2.4103315 *  2.8288663 *  2.4289526 *  1.4139579 *
   7 O       2.3492405 *  1.3751480 *  2.4241705 *  3.6798913    4.1458541  
   8 C       3.6585969    2.4268085 *  2.8514847 *  4.2557952    5.0607670  
   9 C       4.1693580    2.7795275 *  2.4236998 *  3.7356306    4.8527024  
  10 C       3.7300876    2.4313632 *  1.4357440 *  2.5175983 *  3.7723437  
  11 O       4.5885105    3.5063139    4.0662603    5.4684289    6.2218539  
  12 H       5.2510847    3.8624761    3.4274465    4.6534850    5.8510771  
  13 H       4.6206696    3.4168308    2.1834337 *  2.7726664 *  4.1477161  
  14 H       3.8862261    3.3919979    2.1574501 *  1.0887501 *  2.1435962 *
  15 H       3.4097843    3.8598030    3.4146189    2.1462710 *  1.0880885 *
  16 N       2.4104802 *  3.6717702    4.2027533    3.6802668    2.4170478 *
  17 H       1.0872670 *  2.1405087 *  3.4181645    3.8843377    3.4253857  
  18 H       2.6318433 *  4.0124279    4.8072104    4.5050639    3.3374476  
  19 H       3.3279767    4.4881002    4.7961615    4.0062738    2.6306249 *

                6 C          7 O          8 C          9 C         10 C     

   1 C       1.3999142 *  2.3492405 *  3.6585969    4.1693580    3.7300876  
   2 C       2.4103315 *  1.3751480 *  2.4268085 *  2.7795275 *  2.4313632 *
   3 C       2.8288663 *  2.4241705 *  2.8514847 *  2.4236998 *  1.4357440 *
   4 C       2.4289526 *  3.6798913    4.2557952    3.7356306    2.5175983 *
   5 C       1.4139579 *  4.1458541    5.0607670    4.8527024    3.7723437  
   6 C       0.0000000    3.6383824    4.8339403    5.0425296    4.2625028  
   7 O       3.6383824    0.0000000    1.3976702 *  2.4263060 *  2.7929254 *
   8 C       4.8339403    1.3976702 *  0.0000000    1.4580106 *  2.4581745 *
   9 C       5.0425296    2.4263060 *  1.4580106 *  0.0000000    1.3553975 *
  10 C       4.2625028    2.7929254 *  2.4581745 *  1.3553975 *  0.0000000  
  11 O       5.8663366    2.2407620 *  1.2169179 *  2.3845012 *  3.5906778  
  12 H       6.1158253    3.3856300    2.1610077 *  1.0845177 *  2.1443196 *
  13 H       4.9214112    3.8821511    3.4496638    2.1258207 *  1.0892898 *
  14 H       3.4145702    4.5721836    4.9190950    4.1069358    2.7625574 *
  15 H       2.1667596 *  5.2337920    6.1286802    5.8289078    4.6596903  
  16 N       1.3739346 *  4.7596812    6.0507625    6.3822948    5.6363595  
  17 H       2.1763675 *  2.5416553 *  3.9392923    4.7625250    4.5718683  
  18 H       2.0821263 *  4.8816600    6.2486009    6.7900661    6.2104441  
  19 H       2.0814823 *  5.6639667    6.9052888    7.1014021    6.2241744  

               11 O         12 H         13 H         14 H         15 H     

   1 C       4.5885105    5.2510847    4.6206696    3.8862261    3.4097843  
   2 C       3.5063139    3.8624761    3.4168308    3.3919979    3.8598030  
   3 C       4.0662603    3.4274465    2.1834337 *  2.1574501 *  3.4146189  
   4 C       5.4684289    4.6534850    2.7726664 *  1.0887501 *  2.1462710 *
   5 C       6.2218539    5.8510771    4.1477161    2.1435962 *  1.0880885 *
   6 C       5.8663366    6.1158253    4.9214112    3.4145702    2.1667596 *
   7 O       2.2407620 *  3.3856300    3.8821511    4.5721836    5.2337920  
   8 C       1.2169179 *  2.1610077 *  3.4496638    4.9190950    6.1286802  
   9 C       2.3845012 *  1.0845177 *  2.1258207 *  4.1069358    5.8289078  
  10 C       3.5906778    2.1443196 *  1.0892898 *  2.7625574 *  4.6596903  
  11 O       0.0000000    2.6401628 *  4.5004361    6.1317222    7.2998730  
  12 H       2.6401628 *  0.0000000    2.4918343 *  4.8581699    6.7852761  
  13 H       4.5004361    2.4918343 *  0.0000000    2.5713938 *  4.8576663  
  14 H       6.1317222    4.8581699    2.5713938 *  0.0000000    2.4691095 *
  15 H       7.2998730    6.7852761    4.8576663    2.4691095 *  0.0000000  
  16 N       6.9981273    7.4617069    6.2784624    4.5580039    2.6507198 *
  17 H       4.6387181    5.8112028    5.5407752    4.9730663    4.3273451  
  18 H       7.0694153    7.8740082    6.9580712    5.4515706    3.6562703  
  19 H       7.9039895    8.1652630    6.7385875    4.7120876    2.4315721 *

               16 N         17 H         18 H         19 H     

   1 C       2.4104802 *  1.0872670 *  2.6318433 *  3.3279767  
   2 C       3.6717702    2.1405087 *  4.0124279    4.4881002  
   3 C       4.2027533    3.4181645    4.8072104    4.7961615  
   4 C       3.6802668    3.8843377    4.5050639    4.0062738  
   5 C       2.4170478 *  3.4253857    3.3374476    2.6306249 *
   6 C       1.3739346 *  2.1763675 *  2.0821263 *  2.0814823 *
   7 O       4.7596812    2.5416553 *  4.8816600    5.6639667  
   8 C       6.0507625    3.9392923    6.2486009    6.9052888  
   9 C       6.3822948    4.7625250    6.7900661    7.1014021  
  10 C       5.6363595    4.5718683    6.2104441    6.2241744  
  11 O       6.9981273    4.6387181    7.0694153    7.9039895  
  12 H       7.4617069    5.8112028    7.8740082    8.1652630  
  13 H       6.2784624    5.5407752    6.9580712    6.7385875  
  14 H       4.5580039    4.9730663    5.4515706    4.7120876  
  15 H       2.6507198 *  4.3273451    3.6562703    2.4315721 *
  16 N       0.0000000    2.6827611 *  1.0075509 *  1.0072837 *
  17 H       2.6827611 *  0.0000000    2.4751486 *  3.6872197  
  18 H       1.0075509 *  2.4751486 *  0.0000000    1.7246086 *
  19 H       1.0072837 *  3.6872197    1.7246086 *  0.0000000  

  * ... LESS THAN  3.000


     ATOMIC BASIS SET
     ----------------
 THE CONTRACTED PRIMITIVE FUNCTIONS HAVE BEEN UNNORMALIZED
 THE CONTRACTED BASIS FUNCTIONS ARE NOW NORMALIZED TO UNITY

  SHELL TYPE  PRIMITIVE        EXPONENT          CONTRACTION COEFFICIENT(S)

 C         

      1   S       1          3047.5248800    0.001834737132
      1   S       2           457.3695180    0.014037322813
      1   S       3           103.9486850    0.068842622264
      1   S       4            29.2101553    0.232184443216
      1   S       5             9.2866630    0.467941348435
      1   S       6             3.1639270    0.362311985337

      2   L       7             7.8682723   -0.119332419775    0.068999066591
      2   L       8             1.8812885   -0.160854151696    0.316423960957
      2   L       9             0.5442493    1.143456437840    0.744308290898

      3   L      10             0.1687145    1.000000000000    1.000000000000

      4   D      11             0.8000000    1.000000000000

 C         

      5   S      12          3047.5248800    0.001834737132
      5   S      13           457.3695180    0.014037322813
      5   S      14           103.9486850    0.068842622264
      5   S      15            29.2101553    0.232184443216
      5   S      16             9.2866630    0.467941348435
      5   S      17             3.1639270    0.362311985337

      6   L      18             7.8682723   -0.119332419775    0.068999066591
      6   L      19             1.8812885   -0.160854151696    0.316423960957
      6   L      20             0.5442493    1.143456437840    0.744308290898

      7   L      21             0.1687145    1.000000000000    1.000000000000

      8   D      22             0.8000000    1.000000000000

 C         

      9   S      23          3047.5248800    0.001834737132
      9   S      24           457.3695180    0.014037322813
      9   S      25           103.9486850    0.068842622264
      9   S      26            29.2101553    0.232184443216
      9   S      27             9.2866630    0.467941348435
      9   S      28             3.1639270    0.362311985337

     10   L      29             7.8682723   -0.119332419775    0.068999066591
     10   L      30             1.8812885   -0.160854151696    0.316423960957
     10   L      31             0.5442493    1.143456437840    0.744308290898

     11   L      32             0.1687145    1.000000000000    1.000000000000

     12   D      33             0.8000000    1.000000000000

 C         

     13   S      34          3047.5248800    0.001834737132
     13   S      35           457.3695180    0.014037322813
     13   S      36           103.9486850    0.068842622264
     13   S      37            29.2101553    0.232184443216
     13   S      38             9.2866630    0.467941348435
     13   S      39             3.1639270    0.362311985337

     14   L      40             7.8682723   -0.119332419775    0.068999066591
     14   L      41             1.8812885   -0.160854151696    0.316423960957
     14   L      42             0.5442493    1.143456437840    0.744308290898

     15   L      43             0.1687145    1.000000000000    1.000000000000

     16   D      44             0.8000000    1.000000000000

 C         

     17   S      45          3047.5248800    0.001834737132
     17   S      46           457.3695180    0.014037322813
     17   S      47           103.9486850    0.068842622264
     17   S      48            29.2101553    0.232184443216
     17   S      49             9.2866630    0.467941348435
     17   S      50             3.1639270    0.362311985337

     18   L      51             7.8682723   -0.119332419775    0.068999066591
     18   L      52             1.8812885   -0.160854151696    0.316423960957
     18   L      53             0.5442493    1.143456437840    0.744308290898

     19   L      54             0.1687145    1.000000000000    1.000000000000

     20   D      55             0.8000000    1.000000000000

 C         

     21   S      56          3047.5248800    0.001834737132
     21   S      57           457.3695180    0.014037322813
     21   S      58           103.9486850    0.068842622264
     21   S      59            29.2101553    0.232184443216
     21   S      60             9.2866630    0.467941348435
     21   S      61             3.1639270    0.362311985337

     22   L      62             7.8682723   -0.119332419775    0.068999066591
     22   L      63             1.8812885   -0.160854151696    0.316423960957
     22   L      64             0.5442493    1.143456437840    0.744308290898

     23   L      65             0.1687145    1.000000000000    1.000000000000

     24   D      66             0.8000000    1.000000000000

 O         

     25   S      67          5484.6716600    0.001831074430
     25   S      68           825.2349460    0.013950172200
     25   S      69           188.0469580    0.068445078098
     25   S      70            52.9645000    0.232714335992
     25   S      71            16.8975704    0.470192897984
     25   S      72             5.7996353    0.358520852987

     26   L      73            15.5396162   -0.110777549525    0.070874268231
     26   L      74             3.5999336   -0.148026262701    0.339752839147
     26   L      75             1.0137618    1.130767015354    0.727158577316

     27   L      76             0.2700058    1.000000000000    1.000000000000

     28   D      77             0.8000000    1.000000000000

 C         

     29   S      78          3047.5248800    0.001834737132
     29   S      79           457.3695180    0.014037322813
     29   S      80           103.9486850    0.068842622264
     29   S      81            29.2101553    0.232184443216
     29   S      82             9.2866630    0.467941348435
     29   S      83             3.1639270    0.362311985337

     30   L      84             7.8682723   -0.119332419775    0.068999066591
     30   L      85             1.8812885   -0.160854151696    0.316423960957
     30   L      86             0.5442493    1.143456437840    0.744308290898

     31   L      87             0.1687145    1.000000000000    1.000000000000

     32   D      88             0.8000000    1.000000000000

 C         

     33   S      89          3047.5248800    0.001834737132
     33   S      90           457.3695180    0.014037322813
     33   S      91           103.9486850    0.068842622264
     33   S      92            29.2101553    0.232184443216
     33   S      93             9.2866630    0.467941348435
     33   S      94             3.1639270    0.362311985337

     34   L      95             7.8682723   -0.119332419775    0.068999066591
     34   L      96             1.8812885   -0.160854151696    0.316423960957
     34   L      97             0.5442493    1.143456437840    0.744308290898

     35   L      98             0.1687145    1.000000000000    1.000000000000

     36   D      99             0.8000000    1.000000000000

 C         

     37   S     100          3047.5248800    0.001834737132
     37   S     101           457.3695180    0.014037322813
     37   S     102           103.9486850    0.068842622264
     37   S     103            29.2101553    0.232184443216
     37   S     104             9.2866630    0.467941348435
     37   S     105             3.1639270    0.362311985337

     38   L     106             7.8682723   -0.119332419775    0.068999066591
     38   L     107             1.8812885   -0.160854151696    0.316423960957
     38   L     108             0.5442493    1.143456437840    0.744308290898

     39   L     109             0.1687145    1.000000000000    1.000000000000

     40   D     110             0.8000000    1.000000000000

 O         

     41   S     111          5484.6716600    0.001831074430
     41   S     112           825.2349460    0.013950172200
     41   S     113           188.0469580    0.068445078098
     41   S     114            52.9645000    0.232714335992
     41   S     115            16.8975704    0.470192897984
     41   S     116             5.7996353    0.358520852987

     42   L     117            15.5396162   -0.110777549525    0.070874268231
     42   L     118             3.5999336   -0.148026262701    0.339752839147
     42   L     119             1.0137618    1.130767015354    0.727158577316

     43   L     120             0.2700058    1.000000000000    1.000000000000

     44   D     121             0.8000000    1.000000000000

 H         

     45   S     122            18.7311370    0.033494604338
     45   S     123             2.8253944    0.234726953484
     45   S     124             0.6401217    0.813757326146

     46   S     125             0.1612778    1.000000000000

 H         

     47   S     126            18.7311370    0.033494604338
     47   S     127             2.8253944    0.234726953484
     47   S     128             0.6401217    0.813757326146

     48   S     129             0.1612778    1.000000000000

 H         

     49   S     130            18.7311370    0.033494604338
     49   S     131             2.8253944    0.234726953484
     49   S     132             0.6401217    0.813757326146

     50   S     133             0.1612778    1.000000000000

 H         

     51   S     134            18.7311370    0.033494604338
     51   S     135             2.8253944    0.234726953484
     51   S     136             0.6401217    0.813757326146

     52   S     137             0.1612778    1.000000000000

 N         

     53   S     138          4173.5114600    0.001834772160
     53   S     139           627.4579110    0.013994627002
     53   S     140           142.9020930    0.068586551812
     53   S     141            40.2343293    0.232240873040
     53   S     142            12.8202129    0.469069948082
     53   S     143             4.3904370    0.360455199063

     54   L     144            11.6263619   -0.114961181702    0.067579743878
     54   L     145             2.7162798   -0.169117478561    0.323907295893
     54   L     146             0.7722184    1.145851947027    0.740895139755

     55   L     147             0.2120315    1.000000000000    1.000000000000

     56   D     148             0.8000000    1.000000000000

 H         

     57   S     149            18.7311370    0.033494604338
     57   S     150             2.8253944    0.234726953484
     57   S     151             0.6401217    0.813757326146

     58   S     152             0.1612778    1.000000000000

 H         

     59   S     153            18.7311370    0.033494604338
     59   S     154             2.8253944    0.234726953484
     59   S     155             0.6401217    0.813757326146

     60   S     156             0.1612778    1.000000000000

 H         

     61   S     157            18.7311370    0.033494604338
     61   S     158             2.8253944    0.234726953484
     61   S     159             0.6401217    0.813757326146

     62   S     160             0.1612778    1.000000000000

 TOTAL NUMBER OF BASIS SET SHELLS             =   62
 NUMBER OF CARTESIAN GAUSSIAN BASIS FUNCTIONS =  194
 NUMBER OF ELECTRONS                          =   84
 CHARGE OF MOLECULE                           =    0
 SPIN MULTIPLICITY                            =    1
 NUMBER OF OCCUPIED ORBITALS (ALPHA)          =   42
 NUMBER OF OCCUPIED ORBITALS (BETA )          =   42
 TOTAL NUMBER OF ATOMS                        =   19
 THE NUCLEAR REPULSION ENERGY IS      643.9872224335

     LEBEDEV GRID-BASED DFT OPTIONS
     ------------------------------
     DFTTYP=B3LYP   
     NRAD  =      96     NLEB  =     302
     NRAD0 =      24     NLEB0 =     110
     SWOFF =    5.00E-03 (PURE SCF -> DFT)
     SWITCH=    3.00E-04 (COARSE -> TIGHT GRID)
     THRESH=    0.00E+00 GTHRE=    1.00E+00

 GRIMME'S EMPIRICAL DISPERSION CORRECTION= F

     $CONTRL OPTIONS
     ---------------
 SCFTYP=RHF          RUNTYP=ENERGY       EXETYP=RUN     
 MPLEVL=       0     CITYP =NONE         CCTYP =NONE         VBTYP =NONE    
 DFTTYP=B3LYP        TDDFT =EXCITE  
 MULT  =       1     ICHARG=       0     NZVAR =       0     COORD =UNIQUE  
 PP    =NONE         RELWFN=NONE         LOCAL =NONE         NUMGRD=       F
 ISPHER=      -1     NOSYM =       0     MAXIT =     100     UNITS =ANGS    
 PLTORB=       F     MOLPLT=       F     AIMPAC=       F     FRIEND=        
 NPRINT=       7     IREST =       0     GEOM  =INPUT   
 NORMF =       0     NORMP =       0     ITOL  =      20     ICUT  =       9
 INTTYP=BEST         GRDTYP=BEST         QMTTOL= 1.0E-06

     $SYSTEM OPTIONS
     ---------------
  REPLICATED MEMORY=   400000000 WORDS (ON EVERY NODE).
 DISTRIBUTED MEMDDI=           0 MILLION WORDS IN AGGREGATE,
 MEMDDI DISTRIBUTED OVER  16 PROCESSORS IS           0 WORDS/PROCESSOR.
 TOTAL MEMORY REQUESTED ON EACH PROCESSOR=   400000000 WORDS.
 TIMLIM=        1440.00 MINUTES, OR       1.0 DAYS.
 PARALL= T  BALTYP=  DLB     KDIAG=    0  COREFL= F
 MXSEQ2=     300 MXSEQ3=     150  mem10=         0

          ----------------
          PROPERTIES INPUT
          ----------------

     MOMENTS            FIELD           POTENTIAL          DENSITY
 IEMOM =       1   IEFLD =       0   IEPOT =       0   IEDEN =       0
 WHERE =COMASS     WHERE =NUCLEI     WHERE =NUCLEI     WHERE =NUCLEI  
 OUTPUT=BOTH       OUTPUT=BOTH       OUTPUT=BOTH       OUTPUT=BOTH    
 IEMINT=       0   IEFINT=       0                     IEDINT=       0
                                                       MORB  =       0
          EXTRAPOLATION IN EFFECT
          DIIS IN EFFECT
 ORBITAL PRINTING OPTION: NPREO=     1   194     2     1

     -------------------------------
     INTEGRAL TRANSFORMATION OPTIONS
     -------------------------------
     NWORD  =            0
     CUTOFF = 1.0E-09     MPTRAN =       0
     DIRTRF =       T     AOINTS =DUP     

          ----------------------
          INTEGRAL INPUT OPTIONS
          ----------------------
 NOPK  =       1 NORDER=       0 SCHWRZ=       T

          ----------------------
          TDDFT INPUT PARAMETERS
          ----------------------
 NSTATE=       2  IROOT=       1   MULT=       1
 MAXVEC=      50 NTRIAL=       5 CNVTOL=  1.00E-07
 TDPRP =       F  TAMMD=       F    TPA=       F
 ALPHA =       F   BETA=       F  PFREQ=    0.00    0.00
   NRAD=      48   NLEB=     110

     ------------------------------------------
     THE POINT GROUP IS C1 , NAXIS= 0, ORDER= 1
     ------------------------------------------

     DIMENSIONS OF THE SYMMETRY SUBSPACES ARE
 A   =  194

 ..... DONE SETTING UP THE RUN .....
 CPU     0: STEP CPU TIME=     0.05 TOTAL CPU TIME=        0.0 (    0.0 MIN)
 TOTAL WALL CLOCK TIME=        0.1 SECONDS, CPU UTILIZATION IS  83.33%

          ********************
          1 ELECTRON INTEGRALS
          ********************
 ...... END OF ONE-ELECTRON INTEGRALS ......
 CPU     0: STEP CPU TIME=     0.00 TOTAL CPU TIME=        0.0 (    0.0 MIN)
 TOTAL WALL CLOCK TIME=        0.1 SECONDS, CPU UTILIZATION IS  71.43%

          -------------
          GUESS OPTIONS
          -------------
          GUESS =HUCKEL            NORB  =       0          NORDER=       0
          MIX   =       F          PRTMO =       F          PUNMO =       F
          TOLZ  = 1.0E-08          TOLE  = 1.0E-05
          SYMDEN=       F          PURIFY=       F

 INITIAL GUESS ORBITALS GENERATED BY HUCKEL   ROUTINE.
 HUCKEL GUESS REQUIRES    305141 WORDS.

 SYMMETRIES FOR INITIAL GUESS ORBITALS FOLLOW.   BOTH SET(S).
    42 ORBITALS ARE OCCUPIED (   12 CORE ORBITALS).
    13=A       14=A       15=A       16=A       17=A       18=A       19=A   
    20=A       21=A       22=A       23=A       24=A       25=A       26=A   
    27=A       28=A       29=A       30=A       31=A       32=A       33=A   
    34=A       35=A       36=A       37=A       38=A       39=A       40=A   
    41=A       42=A       43=A       44=A       45=A       46=A       47=A   
    48=A       49=A       50=A       51=A       52=A   
 ...... END OF INITIAL ORBITAL SELECTION ......
 CPU     0: STEP CPU TIME=     0.07 TOTAL CPU TIME=        0.1 (    0.0 MIN)
 TOTAL WALL CLOCK TIME=        0.2 SECONDS, CPU UTILIZATION IS  54.55%

                    ----------------------
                    AO INTEGRAL TECHNOLOGY
                    ----------------------
     S,P,L SHELL ROTATED AXIS INTEGRALS, REPROGRAMMED BY
        KAZUYA ISHIMURA (IMS) AND JOSE SIERRA (SYNSTAR).
     S,P,D,L SHELL ROTATED AXIS INTEGRALS PROGRAMMED BY
        KAZUYA ISHIMURA (INSTITUTE FOR MOLECULAR SCIENCE).
     S,P,D,F,G SHELL TO TOTAL QUARTET ANGULAR MOMENTUM SUM 5,
        ERIC PROGRAM BY GRAHAM FLETCHER (ELORET AND NASA ADVANCED
        SUPERCOMPUTING DIVISION, AMES RESEARCH CENTER).
     S,P,D,F,G,L SHELL GENERAL RYS QUADRATURE PROGRAMMED BY
        MICHEL DUPUIS (PACIFIC NORTHWEST NATIONAL LABORATORY).

          --------------------
          2 ELECTRON INTEGRALS
          --------------------

 DIRECT SCF METHOD SKIPS INTEGRAL STORAGE ON DISK.
 DIRECT TRANSFORMATION SKIPS AO INTEGRAL STORAGE ON DISK.
  ...... END OF TWO-ELECTRON INTEGRALS .....
 CPU     0: STEP CPU TIME=     0.03 TOTAL CPU TIME=        0.2 (    0.0 MIN)
 TOTAL WALL CLOCK TIME=        0.2 SECONDS, CPU UTILIZATION IS  62.50%

          --------------------------
             R-B3LYP SCF CALCULATION
          --------------------------

     NUCLEAR ENERGY =       643.9872224335
     MAXIT =  100     NPUNCH=    2
     EXTRAP=T  DAMP=F  SHIFT=F  RSTRCT=F  DIIS=T  DEM=F  SOSCF=F
         DENSITY MATRIX CONVERGENCE THRESHOLD=  2.00E-06
     COARSE -> FINE DFT GRID SWITCH THRESHOLD=  3.00E-04 (SWITCH IN $DFT)
                   HF -> DFT SWITCH THRESHOLD=  5.00E-03 (SWOFF IN $DFT)
     MEMORY REQUIRED FOR RHF ITERS=   1001258 WORDS.

 DIRECT SCF CALCULATION, SCHWRZ=T   FDIFF=T,  DIRTHR=  0.00E+00 NITDIR=10
 SCHWARZ INEQUALITY OVERHEAD:     17694 INTEGRALS, T=        0.00

 DFT CODE IS SWITCHING FROM THE FINE GRID NRAD= 96,  NLEB=  302
                      TO THE COARSE GRID NRAD0= 24, NLEB0=  110

     EXCHANGE FUNCTIONAL   =B88&HFX   
     CORRELATION FUNCTIONAL=LYP88&VWN5
     DFT THRESHOLD         =.726E-08
     GRID CHANGE THRESHOLD =.300E-03
 FOR AN EULER-MACLAURIN QUADRATURE USING  96 RADIAL POINTS:
 SMALLEST GAUSSIAN PRIMITIVE EXPONENT=        0.1612777588 OF TYPE -S-
 ON ATOM NUMBER  12 HAS RADIAL NORMALIZATION=  1.000000
  LARGEST GAUSSIAN PRIMITIVE EXPONENT=     5484.6716600000 OF TYPE -S-
 ON ATOM NUMBER   7 HAS RADIAL NORMALIZATION=  1.000000
 DFT IS SWITCHED OFF, PERFORMING PURE SCF UNTIL SWOFF THRESHOLD IS REACHED.

                                                                                   NONZERO     BLOCKS
 ITER EX DEM     TOTAL ENERGY        E CHANGE  DENSITY CHANGE    DIIS ERROR      INTEGRALS    SKIPPED
          * * *   INITIATING DIIS PROCEDURE   * * *
   1  0  0     -547.5420869923  -547.5420869923   0.345046520   0.440498139       55881718     882742
   2  1  0     -548.8799207634    -1.3378337711   0.255521439   0.128778683       55883506     897836
   3  2  0     -548.9911397312    -0.1112189677   0.127144172   0.097184355       55471605     935971
   4  3  0     -549.0679271975    -0.0767874663   0.018112305   0.008481364       54768366     975545
   5  4  0     -549.0698499286    -0.0019227311   0.007769623   0.003944133       53555310    1019597
   6  5  0     -549.0702198912    -0.0003699626   0.003153649   0.001777815       52301075    1063178
 CONVERGED TO SWOFF, SO DFT CALCULATION IS NOW SWITCHED ON.
          * * *   INITIATING DIIS PROCEDURE   * * *
   7  6  0     -551.9982230694    -2.9280031782   0.169040005   0.102851607       55907896     885527
   8  7  0     -552.0556148437    -0.0573917743   0.077139269   0.030014463       55614613     921062
   9  8  0     -552.0488977786     0.0067170651   0.071983522   0.043158229       54969238     962393
  10  9  0     -552.0654331377    -0.0165353590   0.020778658   0.012736121       54529932     984691
  11 10  0     -552.0667010019    -0.0012678642   0.004705010   0.004136801       52875323    1042849
  12 11  0     -552.0667674642    -0.0000664623   0.001286133   0.000996716       50753400    1109141
  13 12  0     -552.0667719138    -0.0000044497   0.000383847   0.000193046       49127559    1149933
  14 13  0     -552.0667724522    -0.0000005383   0.000148118   0.000100608       46954065    1202487
 DFT CODE IS SWITCHING BACK TO THE FINE GRID
          * * *   INITIATING DIIS PROCEDURE   * * *
  15 14  0     -552.0675253012    -0.0007528490   0.004596610   0.001398373       55939997     878094
  16 15  0     -552.0675682762    -0.0000429750   0.002589281   0.001229678       52027759    1071200
  17 16  0     -552.0675628439     0.0000054322   0.001473757   0.001642017       49365618    1144393
  18 17  0     -552.0675726526    -0.0000098087   0.000333030   0.000171054       48434869    1167380
  19 18  0     -552.0675728272    -0.0000001746   0.000119736   0.000079511       45487115    1236690
  20 19  0     -552.0675728890    -0.0000000617   0.000024936   0.000011712       43248408    1285306
  21 20  0     -552.0675728911    -0.0000000021   0.000009869   0.000006777       40302663    1340307
  22 21  0     -552.0675728920    -0.0000000009   0.000003364   0.000002206       37813723    1385310
  23 22  0     -552.0675728920    -0.0000000000   0.000000814   0.000000422       33976960    1450109

          -----------------
          DENSITY CONVERGED
          -----------------
     TIME TO FORM FOCK OPERATORS=      15.5 SECONDS (       0.7 SEC/ITER)
     FOCK TIME ON FIRST ITERATION=       0.4, LAST ITERATION=       1.0
     TIME TO SOLVE SCF EQUATIONS=       0.4 SECONDS (       0.0 SEC/ITER)

 FINAL R-B3LYP ENERGY IS     -552.0675728920 AFTER  23 ITERATIONS
 DFT EXCHANGE + CORRELATION ENERGY =       -60.8034535915
 TOTAL ELECTRON NUMBER             =        84.0003410492

          ------------
          EIGENVECTORS
          ------------

                      1          2          3          4          5
                  -19.1978   -19.1128   -14.3606   -10.3027   -10.2606
                     A          A          A          A          A   
    1  C  1  S    0.000007   0.000016  -0.000005  -0.000077   0.003706
    2  C  1  S    0.000152   0.000108   0.000029  -0.000448  -0.000597
    3  C  1  X   -0.000010   0.000025  -0.000007  -0.000152   0.000226
    4  C  1  Y    0.000002   0.000006   0.000013  -0.000002   0.000210
    5  C  1  Z   -0.000000  -0.000000   0.000000   0.000000   0.000000
    6  C  1  S   -0.000888  -0.001574   0.000546   0.008429   0.011686
    7  C  1  X    0.000203   0.000662  -0.000112  -0.001998   0.001089
    8  C  1  Y    0.001296   0.000596  -0.000489  -0.003228  -0.007133
    9  C  1  Z   -0.000000  -0.000000   0.000000   0.000000   0.000000
   10  C  1 XX   -0.000091  -0.000036  -0.000086   0.000137  -0.000512
   11  C  1 YY   -0.000076  -0.000010  -0.000000   0.000011  -0.000180
   12  C  1 ZZ    0.000018   0.000034  -0.000015  -0.000124  -0.000301
   13  C  1 XY   -0.000028  -0.000026  -0.000009   0.000029  -0.000030
   14  C  1 XZ   -0.000000  -0.000000   0.000000   0.000000   0.000000
   15  C  1 YZ   -0.000000  -0.000000   0.000000   0.000000   0.000000
   16  C  2  S   -0.000040   0.000030   0.000001  -0.000202   0.992989
   17  C  2  S    0.000077   0.000103   0.000010  -0.000343   0.049646
   18  C  2  X   -0.000391  -0.000159  -0.000003   0.000413  -0.001007
   19  C  2  Y    0.000303   0.000008   0.000002   0.000054   0.000531
   20  C  2  Z   -0.000000  -0.000000   0.000000   0.000000   0.000000
   21  C  2  S    0.000359   0.000304  -0.000436  -0.000483  -0.020457
   22  C  2  X    0.003412   0.001485  -0.000177  -0.006674  -0.009741
   23  C  2  Y   -0.002525   0.000970  -0.000040  -0.005294   0.009100
   24  C  2  Z   -0.000000  -0.000000   0.000000   0.000000   0.000000
   25  C  2 XX    0.000040   0.000074  -0.000008  -0.000086  -0.008327
   26  C  2 YY    0.000140   0.000058   0.000010   0.000029  -0.008738
   27  C  2 ZZ   -0.000080   0.000064  -0.000003  -0.000158  -0.009281
   28  C  2 XY   -0.000108  -0.000011   0.000017  -0.000059  -0.000346
   29  C  2 XZ   -0.000000  -0.000000   0.000000   0.000000   0.000000
   30  C  2 YZ   -0.000000  -0.000000   0.000000   0.000000   0.000000
   31  C  3  S    0.000011   0.000004  -0.000001  -0.000000   0.003897
   32  C  3  S    0.000169   0.000007  -0.000003   0.000138  -0.000477
   33  C  3  X    0.000067  -0.000032  -0.000001  -0.000013  -0.000239
   34  C  3  Y   -0.000008   0.000033  -0.000001  -0.000041  -0.000363
   35  C  3  Z   -0.000000  -0.000000   0.000000   0.000000   0.000000
   36  C  3  S   -0.001816   0.000573   0.000177  -0.002587   0.010911
   37  C  3  X   -0.002515   0.000012   0.000129   0.002768   0.009640
   38  C  3  Y   -0.001311   0.000310   0.000016  -0.003714   0.008081
   39  C  3  Z   -0.000000  -0.000000   0.000000   0.000000   0.000000
   40  C  3 XX   -0.000052   0.000014  -0.000003   0.000001  -0.000345
   41  C  3 YY   -0.000127   0.000001  -0.000006  -0.000118  -0.000354
   42  C  3 ZZ    0.000028   0.000022  -0.000001   0.000004  -0.000254
   43  C  3 XY    0.000003  -0.000052   0.000002   0.000110   0.000049
   44  C  3 XZ   -0.000000  -0.000000   0.000000   0.000000   0.000000
   45  C  3 YZ   -0.000000  -0.000000   0.000000   0.000000   0.000000
   46  C  4  S   -0.000002   0.000006   0.000002  -0.000003   0.000060
   47  C  4  S   -0.000037   0.000034   0.000013   0.000032   0.000176
   48  C  4  X   -0.000066   0.000018  -0.000001  -0.000006   0.000149
   49  C  4  Y    0.000032   0.000008  -0.000007  -0.000055  -0.000086
   50  C  4  Z   -0.000000  -0.000000   0.000000   0.000000   0.000000
   51  C  4  S    0.001616  -0.000194  -0.000457  -0.002683  -0.007908
   52  C  4  X   -0.000031  -0.000103  -0.000045   0.001257  -0.000685
   53  C  4  Y    0.001012  -0.000230  -0.000208  -0.000258  -0.004952
   54  C  4  Z   -0.000000  -0.000000   0.000000   0.000000   0.000000
   55  C  4 XX    0.000033  -0.000009   0.000019  -0.000030   0.000067
   56  C  4 YY    0.000017  -0.000001  -0.000007   0.000001   0.000008
   57  C  4 ZZ    0.000008   0.000016  -0.000001  -0.000013   0.000034
   58  C  4 XY   -0.000018   0.000010   0.000000  -0.000022   0.000009
   59  C  4 XZ   -0.000000  -0.000000   0.000000   0.000000   0.000000
   60  C  4 YZ   -0.000000  -0.000000   0.000000   0.000000   0.000000
   61  C  5  S    0.000014   0.000001  -0.000005  -0.000022  -0.000108
   62  C  5  S    0.000082   0.000003   0.000031  -0.000091  -0.000294
   63  C  5  X    0.000000  -0.000013   0.000010   0.000045   0.000009
   64  C  5  Y    0.000025  -0.000011  -0.000011   0.000022  -0.000078
   65  C  5  Z   -0.000000  -0.000000   0.000000   0.000000   0.000000
   66  C  5  S   -0.001176   0.000034   0.000504   0.001020   0.005116
   67  C  5  X    0.000382  -0.000055  -0.000486  -0.000877  -0.003361
   68  C  5  Y   -0.000347  -0.000099   0.000168   0.000864   0.000670
   69  C  5  Z   -0.000000  -0.000000   0.000000   0.000000   0.000000
   70  C  5 XX   -0.000003   0.000006  -0.000030  -0.000015   0.000001
   71  C  5 YY   -0.000016  -0.000004  -0.000057   0.000015  -0.000016
   72  C  5 ZZ    0.000033   0.000004  -0.000014  -0.000035  -0.000103
   73  C  5 XY   -0.000028   0.000003  -0.000049  -0.000011   0.000035
   74  C  5 XZ   -0.000000  -0.000000   0.000000   0.000000   0.000000
   75  C  5 YZ   -0.000000  -0.000000   0.000000   0.000000   0.000000
   76  C  6  S    0.000011  -0.000001   0.000043   0.000052   0.000167
   77  C  6  S    0.000022  -0.000014   0.000235   0.000208   0.000177
   78  C  6  X   -0.000057  -0.000009   0.000262   0.000019   0.000085
   79  C  6  Y    0.000020   0.000016   0.000149  -0.000043   0.000033
   80  C  6  Z   -0.000000  -0.000000   0.000000   0.000000   0.000000
   81  C  6  S    0.000935   0.000255  -0.000905  -0.002877  -0.007570
   82  C  6  X    0.000260  -0.000131   0.000464   0.002083   0.003254
   83  C  6  Y   -0.000313  -0.000145   0.000254   0.000640  -0.000673
   84  C  6  Z   -0.000000  -0.000000   0.000000   0.000000   0.000000
   85  C  6 XX    0.000032   0.000014   0.000125  -0.000054   0.000020
   86  C  6 YY    0.000045   0.000001   0.000073   0.000006   0.000011
   87  C  6 ZZ    0.000032   0.000001  -0.000002   0.000053   0.000030
   88  C  6 XY    0.000001   0.000001   0.000050   0.000026  -0.000023
   89  C  6 XZ   -0.000000  -0.000000   0.000000   0.000000   0.000000
   90  C  6 YZ   -0.000000  -0.000000   0.000000   0.000000   0.000000
   91  O  7  S    0.992575   0.000040  -0.000001   0.000038   0.000178
   92  O  7  S    0.025304   0.000141  -0.000007   0.000580   0.001300
   93  O  7  X    0.000045   0.000037  -0.000002  -0.000183   0.000170
   94  O  7  Y   -0.000895  -0.000028   0.000001  -0.000006  -0.000085
   95  O  7  Z   -0.000000  -0.000000   0.000000   0.000000   0.000000
   96  O  7  S    0.016282  -0.000763   0.000028  -0.002482  -0.007440
   97  O  7  X    0.000142  -0.000037   0.000038   0.002607  -0.003770
   98  O  7  Y   -0.000540   0.000442  -0.000009   0.000811   0.002344
   99  O  7  Z   -0.000000  -0.000000   0.000000   0.000000   0.000000
  100  O  7 XX   -0.008633  -0.000073  -0.000000  -0.000461  -0.000018
  101  O  7 YY   -0.008627   0.000061  -0.000003   0.000136   0.000365
  102  O  7 ZZ   -0.008549   0.000067  -0.000005   0.000494   0.000936
  103  O  7 XY   -0.000032   0.000010  -0.000007  -0.000334   0.000637
  104  O  7 XZ   -0.000000  -0.000000   0.000000   0.000000   0.000000
  105  O  7 YZ   -0.000000  -0.000000   0.000000   0.000000   0.000000
  106  C  8  S   -0.000014  -0.000047   0.000001   0.993038   0.000051
  107  C  8  S    0.000128   0.000293   0.000003   0.048568  -0.000439
  108  C  8  X    0.000351   0.000021   0.000002   0.000677  -0.000048
  109  C  8  Y    0.000282  -0.000009   0.000000   0.000810   0.000013
  110  C  8  Z   -0.000000  -0.000000   0.000000   0.000000   0.000000
  111  C  8  S   -0.001161  -0.003035  -0.000005  -0.007838   0.001876
  112  C  8  X   -0.001871   0.004676  -0.000001  -0.003124   0.001594
  113  C  8  Y   -0.001803  -0.003321   0.000022   0.007602  -0.004079
  114  C  8  Z   -0.000000  -0.000000   0.000000   0.000000   0.000000
  115  C  8 XX    0.000201  -0.000663   0.000002  -0.007989  -0.000020
  116  C  8 YY    0.000116  -0.000427   0.000002  -0.008476  -0.000063
  117  C  8 ZZ   -0.000019  -0.000121   0.000001  -0.009353  -0.000152
  118  C  8 XY    0.000183   0.000560   0.000002  -0.000307  -0.000071
  119  C  8 XZ   -0.000000  -0.000000   0.000000   0.000000   0.000000
  120  C  8 YZ   -0.000000  -0.000000   0.000000   0.000000   0.000000
  121  C  9  S    0.000002   0.000014   0.000000   0.001401   0.000033
  122  C  9  S    0.000108   0.000122   0.000002  -0.000304   0.000239
  123  C  9  X   -0.000033   0.000053  -0.000000  -0.000075  -0.000018
  124  C  9  Y   -0.000016  -0.000012   0.000001  -0.000228  -0.000032
  125  C  9  Z   -0.000000  -0.000000   0.000000   0.000000   0.000000
  126  C  9  S   -0.000414  -0.001856  -0.000015   0.006174  -0.003636
  127  C  9  X    0.001102  -0.002047  -0.000018   0.000822  -0.001554
  128  C  9  Y   -0.000853  -0.000272   0.000012   0.003696  -0.002591
  129  C  9  Z   -0.000000  -0.000000   0.000000   0.000000   0.000000
  130  C  9 XX   -0.000039  -0.000050  -0.000001  -0.000196  -0.000003
  131  C  9 YY   -0.000110  -0.000009   0.000000  -0.000480  -0.000048
  132  C  9 ZZ    0.000015   0.000029   0.000001  -0.000203   0.000058
  133  C  9 XY   -0.000025   0.000047   0.000001   0.000039  -0.000031
  134  C  9 XZ   -0.000000  -0.000000   0.000000   0.000000   0.000000
  135  C  9 YZ   -0.000000  -0.000000   0.000000   0.000000   0.000000
  136  C 10  S    0.000011   0.000011   0.000000  -0.000017  -0.000034
  137  C 10  S    0.000063   0.000038   0.000000  -0.000139  -0.000338
  138  C 10  X   -0.000032  -0.000079   0.000001   0.000154   0.000045
  139  C 10  Y   -0.000026   0.000069  -0.000000  -0.000051   0.000066
  140  C 10  Z   -0.000000  -0.000000   0.000000   0.000000   0.000000
  141  C 10  S   -0.002429   0.001300   0.000052   0.000594   0.006747
  142  C 10  X   -0.000199  -0.000326  -0.000012  -0.000914   0.003293
  143  C 10  Y   -0.000407   0.000276   0.000026   0.000783   0.001952
  144  C 10  Z   -0.000000  -0.000000   0.000000   0.000000   0.000000
  145  C 10 XX   -0.000021   0.000058   0.000000   0.000039   0.000157
  146  C 10 YY    0.000010  -0.000005   0.000001   0.000069   0.000083
  147  C 10 ZZ    0.000026   0.000039  -0.000000  -0.000060  -0.000066
  148  C 10 XY    0.000005  -0.000021  -0.000001  -0.000008   0.000057
  149  C 10 XZ   -0.000000  -0.000000   0.000000   0.000000   0.000000
  150  C 10 YZ   -0.000000  -0.000000   0.000000   0.000000   0.000000
  151  O 11  S   -0.000016   0.992657   0.000000   0.000014  -0.000095
  152  O 11  S    0.000074   0.025281   0.000001   0.001061  -0.000419
  153  O 11  X   -0.000013   0.000949  -0.000000   0.000038  -0.000017
  154  O 11  Y   -0.000038  -0.000706  -0.000000   0.000047   0.000006
  155  O 11  Z   -0.000000  -0.000000   0.000000   0.000000   0.000000
  156  O 11  S   -0.000007   0.016642  -0.000010  -0.007251   0.003004
  157  O 11  X    0.000221   0.001855  -0.000002  -0.002915   0.000653
  158  O 11  Y    0.000350  -0.001439  -0.000000   0.001104  -0.000095
  159  O 11  Z   -0.000000  -0.000000   0.000000   0.000000   0.000000
  160  O 11 XX   -0.000043  -0.008001   0.000001   0.000137  -0.000249
  161  O 11 YY   -0.000046  -0.008174   0.000001   0.000636  -0.000306
  162  O 11 ZZ    0.000069  -0.008411   0.000000   0.000793  -0.000220
  163  O 11 XY   -0.000001  -0.000376  -0.000000   0.000292   0.000004
  164  O 11 XZ   -0.000000  -0.000000   0.000000   0.000000   0.000000
  165  O 11 YZ   -0.000000  -0.000000   0.000000   0.000000   0.000000
  166  H 12  S    0.000116  -0.000094  -0.000000  -0.000056  -0.000093
  167  H 12  S    0.000193  -0.000673  -0.000004   0.000472  -0.000603
  168  H 13  S    0.000061  -0.000013   0.000002   0.000020  -0.000061
  169  H 13  S   -0.000003  -0.000052   0.000005   0.000413   0.000381
  170  H 14  S    0.000037  -0.000017   0.000001   0.000071  -0.000135
  171  H 14  S    0.000229  -0.000067  -0.000040   0.000116  -0.001189
  172  H 15  S   -0.000002  -0.000000   0.000025   0.000071   0.000108
  173  H 15  S   -0.000097  -0.000008   0.000201   0.000352   0.000759
  174  N 16  S    0.000015   0.000003   0.992619  -0.000001  -0.000027
  175  N 16  S    0.000060   0.000013   0.034856  -0.000001  -0.000112
  176  N 16  X   -0.000006  -0.000011   0.000023   0.000035   0.000018
  177  N 16  Y   -0.000005   0.000005   0.000008  -0.000026  -0.000015
  178  N 16  Z   -0.000000  -0.000000   0.000000   0.000000   0.000000
  179  N 16  S   -0.000422  -0.000001   0.004105  -0.000558   0.000458
  180  N 16  X    0.000158   0.000072   0.000182  -0.000139  -0.000630
  181  N 16  Y    0.000189  -0.000034   0.000109   0.000367   0.000228
  182  N 16  Z   -0.000000  -0.000000   0.000000   0.000000   0.000000
  183  N 16 XX    0.000011  -0.000000  -0.008420   0.000019   0.000022
  184  N 16 YY    0.000019   0.000003  -0.008367  -0.000004  -0.000076
  185  N 16 ZZ    0.000044   0.000014  -0.008411  -0.000022  -0.000077
  186  N 16 XY   -0.000021  -0.000006  -0.000050   0.000011   0.000033
  187  N 16 XZ   -0.000000  -0.000000   0.000000   0.000000   0.000000
  188  N 16 YZ   -0.000000  -0.000000   0.000000   0.000000   0.000000
  189  H 17  S    0.000008   0.000016   0.000022   0.000014   0.000201
  190  H 17  S   -0.000591  -0.000141   0.000190   0.000635   0.001731
  191  H 18  S    0.000000   0.000020   0.000313  -0.000076  -0.000083
  192  H 18  S   -0.000043  -0.000014  -0.000606  -0.000031  -0.000072
  193  H 19  S    0.000022  -0.000016   0.000314   0.000082   0.000038
  194  H 19  S   -0.000006  -0.000022  -0.000605   0.000081   0.000167

                      6          7          8          9         10
                  -10.2497   -10.2147   -10.2050   -10.1982   -10.1938
                     A          A          A          A          A   
    1  C  1  S    0.004113  -0.000035  -0.000236  -0.000171  -0.000255
    2  C  1  S   -0.000664  -0.000129  -0.000175   0.000071   0.000064
    3  C  1  X   -0.000252  -0.000018  -0.000001   0.000003  -0.000017
    4  C  1  Y    0.000216   0.000018   0.000035  -0.000009   0.000028
    5  C  1  Z   -0.000000  -0.000000   0.000000   0.000000   0.000000
    6  C  1  S    0.012582   0.001128   0.002539  -0.002542  -0.004273
    7  C  1  X    0.001087   0.000508  -0.000190  -0.000843   0.000745
    8  C  1  Y   -0.006592  -0.001057  -0.001901   0.002200   0.002675
    9  C  1  Z   -0.000000  -0.000000   0.000000   0.000000   0.000000
   10  C  1 XX   -0.000419  -0.000006  -0.000012   0.000088   0.000092
   11  C  1 YY   -0.000236   0.000015  -0.000001   0.000057   0.000053
   12  C  1 ZZ   -0.000328  -0.000043  -0.000060   0.000039   0.000030
   13  C  1 XY    0.000017   0.000016  -0.000002   0.000035  -0.000038
   14  C  1 XZ   -0.000000  -0.000000   0.000000   0.000000   0.000000
   15  C  1 YZ   -0.000000  -0.000000   0.000000   0.000000   0.000000
   16  C  2  S   -0.000110  -0.000042  -0.000152  -0.004345   0.000005
   17  C  2  S    0.000168  -0.000001   0.000047  -0.000767  -0.000208
   18  C  2  X   -0.000023   0.000064  -0.000019  -0.000020  -0.000030
   19  C  2  Y   -0.000008   0.000024   0.000043   0.000372   0.000001
   20  C  2  Z   -0.000000  -0.000000   0.000000   0.000000   0.000000
   21  C  2  S   -0.006395  -0.002642  -0.003769   0.009350   0.003451
   22  C  2  X   -0.003741  -0.000208  -0.001641   0.000492   0.002782
   23  C  2  Y    0.000255   0.001615   0.001132  -0.004660  -0.000312
   24  C  2  Z   -0.000000  -0.000000   0.000000   0.000000   0.000000
   25  C  2 XX    0.000027   0.000051   0.000029  -0.000217  -0.000030
   26  C  2 YY    0.000013   0.000066   0.000071  -0.000448  -0.000042
   27  C  2 ZZ    0.000037  -0.000000   0.000024  -0.000145  -0.000075
   28  C  2 XY    0.000051  -0.000038   0.000008  -0.000004   0.000008
   29  C  2 XZ   -0.000000  -0.000000   0.000000   0.000000   0.000000
   30  C  2 YZ   -0.000000  -0.000000   0.000000   0.000000   0.000000
   31  C  3  S   -0.000106   0.012048   0.037061   0.992041   0.001763
   32  C  3  S   -0.000246   0.000066   0.001239   0.050245   0.000225
   33  C  3  X   -0.000103   0.000332  -0.000380  -0.000040   0.000029
   34  C  3  Y   -0.000036   0.000114   0.000141   0.000213  -0.000020
   35  C  3  Z   -0.000000  -0.000000   0.000000   0.000000   0.000000
   36  C  3  S    0.003943   0.008121   0.008343  -0.022117  -0.004644
   37  C  3  X    0.004651  -0.003675   0.005261  -0.000409  -0.003785
   38  C  3  Y    0.000945   0.000930   0.000606  -0.003214   0.000138
   39  C  3  Z   -0.000000  -0.000000   0.000000   0.000000   0.000000
   40  C  3 XX   -0.000006  -0.000527  -0.000708  -0.009089   0.000040
   41  C  3 YY    0.000008  -0.000437  -0.000685  -0.009182   0.000050
   42  C  3 ZZ   -0.000085  -0.000325  -0.000568  -0.009464   0.000026
   43  C  3 XY   -0.000039  -0.000122   0.000109  -0.000021  -0.000010
   44  C  3 XZ   -0.000000  -0.000000   0.000000   0.000000   0.000000
   45  C  3 YZ   -0.000000  -0.000000   0.000000   0.000000   0.000000
   46  C  4  S    0.000079   0.000235   0.991758  -0.037448  -0.027119
   47  C  4  S    0.000224  -0.000036   0.049776  -0.002384  -0.002143
   48  C  4  X   -0.000056   0.000009  -0.000036   0.000306  -0.000288
   49  C  4  Y   -0.000058   0.000044   0.000248  -0.000232  -0.000228
   50  C  4  Z   -0.000000  -0.000000   0.000000   0.000000   0.000000
   51  C  4  S   -0.007280   0.000115  -0.019887   0.007177   0.011312
   52  C  4  X    0.000393  -0.000466   0.000380  -0.001016   0.000786
   53  C  4  Y   -0.004019  -0.000273  -0.005327   0.002969   0.005047
   54  C  4  Z   -0.000000  -0.000000   0.000000   0.000000   0.000000
   55  C  4 XX    0.000033   0.000054  -0.009144  -0.000098  -0.000120
   56  C  4 YY    0.000039   0.000051  -0.009304   0.000052   0.000017
   57  C  4 ZZ    0.000051  -0.000018  -0.009492   0.000184   0.000021
   58  C  4 XY    0.000043  -0.000029   0.000034   0.000123  -0.000063
   59  C  4 XZ   -0.000000  -0.000000   0.000000   0.000000   0.000000
   60  C  4 YZ   -0.000000  -0.000000   0.000000   0.000000   0.000000
   61  C  5  S    0.003992  -0.000023   0.026516  -0.002690   0.992447
   62  C  5  S   -0.000597  -0.000088   0.000591  -0.000022   0.050024
   63  C  5  X    0.000075   0.000017   0.000333  -0.000010  -0.000202
   64  C  5  Y   -0.000297  -0.000004   0.000127   0.000004   0.000253
   65  C  5  Z   -0.000000  -0.000000   0.000000   0.000000   0.000000
   66  C  5  S    0.011456   0.000735   0.009261  -0.003488  -0.020992
   67  C  5  X   -0.004889  -0.000664  -0.004302   0.001993   0.004722
   68  C  5  Y    0.004697   0.000085   0.001251  -0.000903  -0.003425
   69  C  5  Z   -0.000000  -0.000000   0.000000   0.000000   0.000000
   70  C  5 XX   -0.000264   0.000014  -0.000574   0.000130  -0.009268
   71  C  5 YY   -0.000414  -0.000017  -0.000554   0.000074  -0.009216
   72  C  5 ZZ   -0.000315  -0.000033  -0.000485   0.000075  -0.009507
   73  C  5 XY   -0.000106  -0.000007  -0.000107   0.000025   0.000086
   74  C  5 XZ   -0.000000  -0.000000   0.000000   0.000000   0.000000
   75  C  5 YZ   -0.000000  -0.000000   0.000000   0.000000   0.000000
   76  C  6  S    0.992894   0.000001  -0.000113   0.000035  -0.004477
   77  C  6  S    0.049452   0.000031   0.000111  -0.000193  -0.000853
   78  C  6  X    0.000344   0.000024   0.000018   0.000021   0.000010
   79  C  6  Y    0.000207   0.000013   0.000026   0.000004   0.000369
   80  C  6  Z   -0.000000  -0.000000   0.000000   0.000000   0.000000
   81  C  6  S   -0.020183  -0.001296  -0.004253   0.003303   0.009321
   82  C  6  X    0.008292   0.000492   0.001276  -0.002050  -0.002768
   83  C  6  Y    0.004681  -0.000269   0.001851  -0.000782  -0.004764
   84  C  6  Z   -0.000000  -0.000000   0.000000   0.000000   0.000000
   85  C  6 XX   -0.008762  -0.000023   0.000022  -0.000027  -0.000264
   86  C  6 YY   -0.009020   0.000002   0.000047  -0.000013  -0.000475
   87  C  6 ZZ   -0.009382  -0.000002   0.000040  -0.000070  -0.000189
   88  C  6 XY    0.000224  -0.000005   0.000003  -0.000018   0.000050
   89  C  6 XZ   -0.000000  -0.000000   0.000000   0.000000   0.000000
   90  C  6 YZ   -0.000000  -0.000000   0.000000   0.000000   0.000000
   91  O  7  S   -0.000006  -0.000004  -0.000010   0.000041  -0.000025
   92  O  7  S   -0.000012  -0.000022  -0.000044   0.000142  -0.000116
   93  O  7  X   -0.000052  -0.000001   0.000005  -0.000015  -0.000002
   94  O  7  Y   -0.000013   0.000029   0.000023  -0.000057   0.000001
   95  O  7  Z   -0.000000  -0.000000   0.000000   0.000000   0.000000
   96  O  7  S   -0.000335   0.000108  -0.000028  -0.000974   0.000888
   97  O  7  X    0.000403  -0.000184  -0.000097   0.000271   0.000132
   98  O  7  Y    0.000196  -0.000224  -0.000146   0.000669  -0.000166
   99  O  7  Z   -0.000000  -0.000000   0.000000   0.000000   0.000000
  100  O  7 XX    0.000035  -0.000028  -0.000024   0.000159  -0.000073
  101  O  7 YY   -0.000050  -0.000006  -0.000005   0.000130  -0.000056
  102  O  7 ZZ   -0.000046  -0.000007  -0.000050   0.000087  -0.000059
  103  O  7 XY   -0.000033   0.000028  -0.000016  -0.000031  -0.000009
  104  O  7 XZ   -0.000000  -0.000000   0.000000   0.000000   0.000000
  105  O  7 YZ   -0.000000  -0.000000   0.000000   0.000000   0.000000
  106  C  8  S   -0.000005  -0.000026  -0.000003   0.000003  -0.000004
  107  C  8  S    0.000033  -0.000033  -0.000025  -0.000076  -0.000038
  108  C  8  X    0.000046   0.000004  -0.000012   0.000029  -0.000012
  109  C  8  Y    0.000015   0.000053  -0.000001   0.000013  -0.000001
  110  C  8  Z   -0.000000  -0.000000   0.000000   0.000000   0.000000
  111  C  8  S    0.000223  -0.002225  -0.000265   0.001311   0.000150
  112  C  8  X    0.000009  -0.000299  -0.000044   0.000847   0.000043
  113  C  8  Y   -0.000049   0.001032  -0.000084  -0.000795  -0.000008
  114  C  8  Z   -0.000000  -0.000000   0.000000   0.000000   0.000000
  115  C  8 XX    0.000040  -0.000023  -0.000027   0.000029  -0.000006
  116  C  8 YY    0.000040   0.000035  -0.000011   0.000004  -0.000013
  117  C  8 ZZ    0.000017  -0.000004  -0.000015  -0.000037  -0.000018
  118  C  8 XY    0.000020  -0.000007   0.000012   0.000003  -0.000001
  119  C  8 XZ   -0.000000  -0.000000   0.000000   0.000000   0.000000
  120  C  8 YZ   -0.000000  -0.000000   0.000000   0.000000   0.000000
  121  C  9  S    0.000011   0.016751  -0.000058  -0.001005  -0.000048
  122  C  9  S    0.000038   0.000127  -0.000075   0.000020  -0.000021
  123  C  9  X   -0.000016  -0.000324  -0.000016  -0.000004   0.000025
  124  C  9  Y    0.000031   0.000125   0.000006   0.000016  -0.000016
  125  C  9  Z   -0.000000  -0.000000   0.000000   0.000000   0.000000
  126  C  9  S   -0.000631   0.008020   0.000326  -0.002803   0.000761
  127  C  9  X   -0.000386   0.003723   0.000337  -0.001533   0.000294
  128  C  9  Y   -0.000190   0.000377   0.000020  -0.000584  -0.000213
  129  C  9  Z   -0.000000  -0.000000   0.000000   0.000000   0.000000
  130  C  9 XX   -0.000005  -0.000442   0.000018   0.000103   0.000009
  131  C  9 YY   -0.000008  -0.000472  -0.000012   0.000064   0.000004
  132  C  9 ZZ    0.000009  -0.000364  -0.000027   0.000041  -0.000002
  133  C  9 XY    0.000012   0.000070   0.000012  -0.000025  -0.000014
  134  C  9 XZ   -0.000000  -0.000000   0.000000   0.000000   0.000000
  135  C  9 YZ   -0.000000  -0.000000   0.000000   0.000000   0.000000
  136  C 10  S   -0.000004   0.992592  -0.000698  -0.012411  -0.000016
  137  C 10  S   -0.000064   0.049760  -0.000117  -0.001038  -0.000021
  138  C 10  X    0.000057   0.000088   0.000008  -0.000294  -0.000060
  139  C 10  Y    0.000016   0.000264   0.000044  -0.000209  -0.000004
  140  C 10  Z   -0.000000  -0.000000   0.000000   0.000000   0.000000
  141  C 10  S    0.002367  -0.018441   0.001186   0.006048  -0.001300
  142  C 10  X    0.000561  -0.000370   0.000563   0.001060   0.000404
  143  C 10  Y    0.000970  -0.004569   0.000163   0.002525  -0.000835
  144  C 10  Z   -0.000000  -0.000000   0.000000   0.000000   0.000000
  145  C 10 XX    0.000027  -0.009150   0.000062  -0.000390   0.000003
  146  C 10 YY    0.000023  -0.009294   0.000047  -0.000179  -0.000038
  147  C 10 ZZ   -0.000013  -0.009528  -0.000014  -0.000056  -0.000016
  148  C 10 XY    0.000009  -0.000093   0.000020  -0.000141   0.000002
  149  C 10 XZ   -0.000000  -0.000000   0.000000   0.000000   0.000000
  150  C 10 YZ   -0.000000  -0.000000   0.000000   0.000000   0.000000
  151  O 11  S   -0.000002  -0.000018  -0.000009  -0.000019  -0.000000
  152  O 11  S   -0.000007  -0.000082  -0.000040  -0.000086  -0.000001
  153  O 11  X   -0.000010   0.000009  -0.000002  -0.000011   0.000005
  154  O 11  Y   -0.000001   0.000031  -0.000001  -0.000001   0.000003
  155  O 11  Z   -0.000000  -0.000000   0.000000   0.000000   0.000000
  156  O 11  S    0.000004   0.000325   0.000220   0.000604  -0.000001
  157  O 11  X    0.000024   0.000016   0.000080   0.000093  -0.000020
  158  O 11  Y    0.000024  -0.000314  -0.000037  -0.000016  -0.000015
  159  O 11  Z   -0.000000  -0.000000   0.000000   0.000000   0.000000
  160  O 11 XX    0.000003  -0.000080  -0.000014  -0.000046  -0.000004
  161  O 11 YY   -0.000014   0.000002  -0.000024  -0.000063   0.000005
  162  O 11 ZZ   -0.000011  -0.000062  -0.000032  -0.000051  -0.000002
  163  O 11 XY    0.000005  -0.000040  -0.000013   0.000012  -0.000000
  164  O 11 XZ   -0.000000  -0.000000   0.000000   0.000000   0.000000
  165  O 11 YZ   -0.000000  -0.000000   0.000000   0.000000   0.000000
  166  H 12  S   -0.000018   0.000013   0.000006  -0.000053  -0.000015
  167  H 12  S   -0.000094   0.000680   0.000145  -0.000317  -0.000000
  168  H 13  S    0.000011  -0.000464  -0.000030   0.000010  -0.000053
  169  H 13  S    0.000220   0.000921  -0.000054   0.000355  -0.000196
  170  H 14  S   -0.000100  -0.000037  -0.000478   0.000029   0.000069
  171  H 14  S   -0.000814  -0.000139   0.000753   0.000381   0.000898
  172  H 15  S    0.000116   0.000021   0.000036  -0.000070  -0.000482
  173  H 15  S    0.001685   0.000207   0.000871  -0.000459   0.000680
  174  N 16  S   -0.000104  -0.000009  -0.000010  -0.000011  -0.000011
  175  N 16  S    0.000243  -0.000035  -0.000042  -0.000048  -0.000121
  176  N 16  X    0.000262   0.000004  -0.000003   0.000003  -0.000000
  177  N 16  Y    0.000142  -0.000003   0.000031  -0.000002  -0.000017
  178  N 16  Z   -0.000000  -0.000000   0.000000   0.000000   0.000000
  179  N 16  S   -0.002362   0.000209  -0.000116   0.000711   0.001058
  180  N 16  X    0.001568  -0.000161   0.000080  -0.000195  -0.000506
  181  N 16  Y    0.000933   0.000023  -0.000424  -0.000129   0.000189
  182  N 16  Z   -0.000000  -0.000000   0.000000   0.000000   0.000000
  183  N 16 XX   -0.000583   0.000002  -0.000014  -0.000014   0.000046
  184  N 16 YY   -0.000176  -0.000020  -0.000001  -0.000010   0.000045
  185  N 16 ZZ    0.000164  -0.000025  -0.000036  -0.000021  -0.000052
  186  N 16 XY   -0.000393   0.000012   0.000032   0.000001   0.000016
  187  N 16 XZ   -0.000000  -0.000000   0.000000   0.000000   0.000000
  188  N 16 YZ   -0.000000  -0.000000   0.000000   0.000000   0.000000
  189  H 17  S    0.000091   0.000045   0.000079  -0.000102  -0.000087
  190  H 17  S    0.001590   0.000331   0.000492  -0.000532  -0.000546
  191  H 18  S    0.000039  -0.000018   0.000058  -0.000014  -0.000073
  192  H 18  S   -0.000342  -0.000022   0.000115   0.000044   0.000025
  193  H 19  S    0.000064   0.000005  -0.000072  -0.000006   0.000021
  194  H 19  S   -0.000354   0.000033  -0.000036   0.000018   0.000138

                     11         12         13         14         15
                  -10.1930   -10.1897    -1.0947    -1.0046    -0.9359
                     A          A          A          A          A   
    1  C  1  S    0.000010   0.992777  -0.011866   0.013141  -0.042945
    2  C  1  S   -0.000057   0.050232   0.024131  -0.023189   0.083069
    3  C  1  X   -0.000014   0.000042  -0.016876   0.014795   0.037447
    4  C  1  Y   -0.000017  -0.000399  -0.005090   0.005957  -0.021636
    5  C  1  Z   -0.000000   0.000000   0.000000  -0.000000  -0.000000
    6  C  1  S    0.001587  -0.021418  -0.033521  -0.033449   0.009162
    7  C  1  X   -0.000470  -0.000272  -0.019748   0.023225   0.028061
    8  C  1  Y   -0.000449   0.005870   0.030082   0.001236   0.027681
    9  C  1  Z   -0.000000   0.000000   0.000000  -0.000000  -0.000000
   10  C  1 XX    0.000016  -0.009227   0.003970  -0.003144   0.004743
   11  C  1 YY   -0.000000  -0.009364  -0.000805   0.000207   0.000006
   12  C  1 ZZ   -0.000016  -0.009557  -0.001067   0.001762  -0.004724
   13  C  1 XY   -0.000003  -0.000014   0.001408  -0.001470  -0.002823
   14  C  1 XZ   -0.000000   0.000000   0.000000  -0.000000  -0.000000
   15  C  1 YZ   -0.000000   0.000000   0.000000  -0.000000  -0.000000
   16  C  2  S    0.000012  -0.004221  -0.065924   0.047936  -0.014547
   17  C  2  S    0.000018  -0.000926   0.123116  -0.088708   0.028611
   18  C  2  X    0.000003  -0.000352  -0.082759   0.045198   0.025736
   19  C  2  Y    0.000059  -0.000176   0.044106  -0.029370  -0.005777
   20  C  2  Z   -0.000000   0.000000   0.000000  -0.000000  -0.000000
   21  C  2  S    0.000222   0.010461   0.033484  -0.028649   0.045818
   22  C  2  X   -0.001688   0.004826   0.069087   0.003761   0.018519
   23  C  2  Y   -0.000946  -0.000567  -0.028494   0.042457   0.014587
   24  C  2  Z   -0.000000   0.000000   0.000000  -0.000000  -0.000000
   25  C  2 XX    0.000024  -0.000310   0.008980  -0.004038   0.000875
   26  C  2 YY    0.000035  -0.000322  -0.003463   0.001153   0.000485
   27  C  2 ZZ   -0.000002  -0.000192  -0.010779   0.008059  -0.001541
   28  C  2 XY    0.000000  -0.000090  -0.011541   0.007398   0.001776
   29  C  2 XZ   -0.000000   0.000000   0.000000  -0.000000  -0.000000
   30  C  2 YZ   -0.000000   0.000000   0.000000  -0.000000  -0.000000
   31  C  3  S    0.000858   0.000227  -0.015322   0.013195  -0.014243
   32  C  3  S    0.000149   0.000119   0.027673  -0.025578   0.027211
   33  C  3  X    0.000001  -0.000017  -0.007178   0.002185   0.011622
   34  C  3  Y   -0.000027   0.000010   0.018912  -0.014501   0.004996
   35  C  3  Z   -0.000000   0.000000   0.000000  -0.000000  -0.000000
   36  C  3  S   -0.003744  -0.003841   0.008779   0.017993   0.018825
   37  C  3  X    0.002583  -0.001718  -0.059976   0.014587  -0.014275
   38  C  3  Y   -0.000000  -0.001899  -0.000727   0.010317   0.000885
   39  C  3  Z   -0.000000   0.000000   0.000000  -0.000000  -0.000000
   40  C  3 XX    0.000057   0.000041  -0.000040   0.000762   0.000862
   41  C  3 YY    0.000023   0.000078   0.004035  -0.002239   0.000304
   42  C  3 ZZ    0.000029   0.000034  -0.001904   0.001590  -0.001586
   43  C  3 XY    0.000013  -0.000010  -0.001742   0.000571   0.000355
   44  C  3 XZ   -0.000000   0.000000   0.000000  -0.000000  -0.000000
   45  C  3 YZ   -0.000000   0.000000   0.000000  -0.000000  -0.000000
   46  C  4  S   -0.000006   0.000155  -0.002412   0.003733  -0.019125
   47  C  4  S   -0.000024  -0.000164   0.004719  -0.006584   0.035822
   48  C  4  X    0.000037   0.000007  -0.003088   0.002787   0.007503
   49  C  4  Y   -0.000005  -0.000021   0.003384  -0.003676   0.016568
   50  C  4  Z   -0.000000   0.000000   0.000000  -0.000000  -0.000000
   51  C  4  S   -0.000918   0.003281   0.038810  -0.016271   0.053870
   52  C  4  X   -0.000579   0.000497  -0.005463   0.000188   0.008013
   53  C  4  Y   -0.000631   0.001945   0.012859  -0.006636   0.011132
   54  C  4  Z   -0.000000   0.000000   0.000000  -0.000000  -0.000000
   55  C  4 XX    0.000011  -0.000010   0.000331  -0.000391   0.001125
   56  C  4 YY   -0.000034  -0.000018   0.000416  -0.000292   0.000917
   57  C  4 ZZ   -0.000014  -0.000066  -0.000117   0.000507  -0.002280
   58  C  4 XY   -0.000008   0.000005  -0.000407   0.000491   0.001069
   59  C  4 XZ   -0.000000   0.000000   0.000000  -0.000000  -0.000000
   60  C  4 YZ   -0.000000   0.000000   0.000000  -0.000000  -0.000000
   61  C  5  S    0.000041   0.000294  -0.001153   0.002604  -0.043432
   62  C  5  S   -0.000021   0.000056   0.003076  -0.005151   0.083786
   63  C  5  X   -0.000015   0.000002  -0.001597   0.001987   0.000319
   64  C  5  Y    0.000005  -0.000046   0.001272  -0.002067   0.041058
   65  C  5  Z   -0.000000   0.000000   0.000000  -0.000000  -0.000000
   66  C  5  S    0.000850  -0.003485  -0.004449  -0.002989   0.012957
   67  C  5  X   -0.000411   0.002311   0.009591  -0.002755   0.034494
   68  C  5  Y   -0.000174  -0.000595   0.000247  -0.002802   0.003054
   69  C  5  Z   -0.000000   0.000000   0.000000  -0.000000  -0.000000
   70  C  5 XX    0.000007   0.000035   0.000078  -0.000047  -0.000670
   71  C  5 YY    0.000002   0.000102   0.000169  -0.000310   0.005766
   72  C  5 ZZ   -0.000005   0.000015   0.000048   0.000255  -0.004876
   73  C  5 XY    0.000008  -0.000004  -0.000189   0.000161   0.001466
   74  C  5 XZ   -0.000000   0.000000   0.000000  -0.000000  -0.000000
   75  C  5 YZ   -0.000000   0.000000   0.000000  -0.000000  -0.000000
   76  C  6  S   -0.000000  -0.004629  -0.002389   0.004680  -0.115996
   77  C  6  S    0.000026  -0.000879   0.004350  -0.009981   0.230370
   78  C  6  X   -0.000011   0.000333  -0.003492   0.003180   0.081361
   79  C  6  Y   -0.000011  -0.000172   0.000073  -0.000365   0.046324
   80  C  6  Z   -0.000000   0.000000   0.000000  -0.000000  -0.000000
   81  C  6  S   -0.000239   0.009131   0.034353  -0.009589   0.081288
   82  C  6  X    0.000421  -0.005513  -0.010042  -0.002625  -0.060534
   83  C  6  Y    0.000125   0.000151   0.013988  -0.009895  -0.038716
   84  C  6  Z   -0.000000   0.000000   0.000000  -0.000000  -0.000000
   85  C  6 XX   -0.000003  -0.000375   0.000863  -0.000510   0.007502
   86  C  6 YY    0.000002  -0.000352   0.000001  -0.000023  -0.001698
   87  C  6 ZZ    0.000008  -0.000184  -0.000263   0.000467  -0.015354
   88  C  6 XY    0.000007   0.000110  -0.000045  -0.000043   0.008796
   89  C  6 XZ   -0.000000   0.000000   0.000000  -0.000000  -0.000000
   90  C  6 YZ   -0.000000   0.000000   0.000000  -0.000000  -0.000000
   91  O  7  S    0.000062  -0.000001  -0.184070   0.082006   0.011554
   92  O  7  S    0.000245  -0.000078   0.392865  -0.176853  -0.025409
   93  O  7  X    0.000010   0.000030  -0.010040  -0.053545   0.006385
   94  O  7  Y   -0.000051  -0.000009  -0.090776   0.047122   0.004697
   95  O  7  Z   -0.000000   0.000000   0.000000  -0.000000  -0.000000
   96  O  7  S   -0.001992   0.000393   0.455999  -0.216466  -0.031356
   97  O  7  X    0.000094  -0.000099   0.000367  -0.034756   0.000253
   98  O  7  Y    0.000791  -0.000066  -0.062021   0.032064   0.001730
   99  O  7  Z   -0.000000   0.000000   0.000000  -0.000000  -0.000000
  100  O  7 XX    0.000223   0.000089   0.008060   0.003984   0.000086
  101  O  7 YY    0.000179   0.000023  -0.002565   0.000223   0.000420
  102  O  7 ZZ    0.000111  -0.000027  -0.014191   0.005711   0.000500
  103  O  7 XY    0.000006   0.000008  -0.000282   0.005104  -0.000440
  104  O  7 XZ   -0.000000   0.000000   0.000000  -0.000000  -0.000000
  105  O  7 YZ   -0.000000   0.000000   0.000000  -0.000000  -0.000000
  106  C  8  S   -0.001735  -0.000015  -0.094506  -0.088498   0.000486
  107  C  8  S   -0.000464  -0.000077   0.182469   0.175508  -0.001145
  108  C  8  X    0.000063  -0.000037   0.042006  -0.187788  -0.014616
  109  C  8  Y    0.000295  -0.000018   0.063469   0.096838   0.000886
  110  C  8  Z   -0.000000   0.000000   0.000000  -0.000000  -0.000000
  111  C  8  S    0.006901   0.000279   0.031741   0.048959  -0.003067
  112  C  8  X    0.001118   0.000389  -0.010779   0.049283   0.002021
  113  C  8  Y   -0.003392  -0.000361  -0.023306  -0.035917   0.000749
  114  C  8  Z   -0.000000   0.000000   0.000000  -0.000000  -0.000000
  115  C  8 XX   -0.000155  -0.000042   0.013271  -0.002456  -0.000915
  116  C  8 YY   -0.000523  -0.000046  -0.007711  -0.001525   0.000190
  117  C  8 ZZ   -0.000170  -0.000032  -0.016396  -0.015823   0.000009
  118  C  8 XY   -0.000084  -0.000034   0.002000  -0.025979  -0.001854
  119  C  8 XZ   -0.000000   0.000000   0.000000  -0.000000  -0.000000
  120  C  8 YZ   -0.000000   0.000000   0.000000  -0.000000  -0.000000
  121  C  9  S    0.992644  -0.000021  -0.018237  -0.010556  -0.000804
  122  C  9  S    0.050023  -0.000017   0.031229   0.021731   0.001073
  123  C  9  X    0.000328  -0.000017   0.008182  -0.012674   0.000387
  124  C  9  Y    0.000286  -0.000013   0.023315   0.018719  -0.001149
  125  C  9  Z   -0.000000   0.000000   0.000000  -0.000000  -0.000000
  126  C  9  S   -0.018946  -0.000630   0.029281  -0.020694   0.005533
  127  C  9  X   -0.004084  -0.000212   0.025726  -0.034080   0.001352
  128  C  9  Y   -0.002337  -0.000012   0.001565   0.004024   0.001833
  129  C  9  Z   -0.000000   0.000000   0.000000  -0.000000  -0.000000
  130  C  9 XX   -0.009245   0.000004  -0.000019  -0.001156   0.000166
  131  C  9 YY   -0.009294   0.000013   0.006009   0.005494  -0.000060
  132  C  9 ZZ   -0.009566  -0.000013  -0.002473  -0.000889  -0.000181
  133  C  9 XY   -0.000137  -0.000005   0.000846  -0.002591  -0.000378
  134  C  9 XZ   -0.000000   0.000000   0.000000  -0.000000  -0.000000
  135  C  9 YZ   -0.000000   0.000000   0.000000  -0.000000  -0.000000
  136  C 10  S   -0.017306  -0.000008  -0.008829   0.003748  -0.003257
  137  C 10  S   -0.001624  -0.000081   0.019243  -0.005517   0.006870
  138  C 10  X    0.000312  -0.000013  -0.000334  -0.005601   0.003196
  139  C 10  Y   -0.000272  -0.000015   0.011200  -0.002607   0.001417
  140  C 10  Z   -0.000000   0.000000   0.000000  -0.000000  -0.000000
  141  C 10  S    0.009702  -0.000137  -0.047753   0.026331  -0.007246
  142  C 10  X   -0.000829  -0.000361  -0.006254  -0.007261  -0.001838
  143  C 10  Y    0.004250   0.000505  -0.024635   0.001166  -0.005466
  144  C 10  Z   -0.000000   0.000000   0.000000  -0.000000  -0.000000
  145  C 10 XX   -0.000196  -0.000029  -0.000348  -0.000235   0.000245
  146  C 10 YY   -0.000098   0.000008   0.001427  -0.000602  -0.000123
  147  C 10 ZZ   -0.000051  -0.000034  -0.000597   0.000886  -0.000326
  148  C 10 XY    0.000062   0.000022   0.000029  -0.000843   0.000283
  149  C 10 XZ   -0.000000   0.000000   0.000000  -0.000000  -0.000000
  150  C 10 YZ   -0.000000   0.000000   0.000000  -0.000000  -0.000000
  151  O 11  S   -0.000010  -0.000013  -0.066595  -0.182139  -0.007145
  152  O 11  S   -0.000082  -0.000061   0.143532   0.389326   0.015238
  153  O 11  X   -0.000004  -0.000001   0.057846   0.115973   0.003047
  154  O 11  Y   -0.000031   0.000001  -0.034402  -0.093882  -0.003700
  155  O 11  Z   -0.000000   0.000000   0.000000  -0.000000  -0.000000
  156  O 11  S    0.000375   0.000411   0.132577   0.404969   0.016789
  157  O 11  X    0.000132   0.000071   0.027296   0.044555   0.000929
  158  O 11  Y    0.000311  -0.000045  -0.009016  -0.038252  -0.001989
  159  O 11  Z   -0.000000   0.000000   0.000000  -0.000000  -0.000000
  160  O 11 XX    0.000039  -0.000032   0.005080  -0.000651  -0.000351
  161  O 11 YY   -0.000009  -0.000034  -0.002493  -0.003895  -0.000065
  162  O 11 ZZ   -0.000078  -0.000035  -0.002837  -0.009170  -0.000395
  163  O 11 XY    0.000027  -0.000002  -0.005556  -0.011186  -0.000367
  164  O 11 XZ   -0.000000   0.000000   0.000000  -0.000000  -0.000000
  165  O 11 YZ   -0.000000   0.000000   0.000000  -0.000000  -0.000000
  166  H 12  S   -0.000439   0.000002   0.005538   0.005307   0.000391
  167  H 12  S    0.000912  -0.000002   0.006856  -0.006958   0.000612
  168  H 13  S    0.000054   0.000030   0.001341  -0.001430   0.001167
  169  H 13  S    0.000721   0.000207  -0.006696  -0.003141  -0.000934
  170  H 14  S   -0.000049   0.000051   0.000360  -0.001053   0.005356
  171  H 14  S   -0.000143   0.000466   0.001553  -0.000806   0.000377
  172  H 15  S   -0.000009  -0.000079  -0.000240  -0.000524   0.016612
  173  H 15  S    0.000025  -0.000468  -0.002654   0.000488  -0.005858
  174  N 16  S    0.000002  -0.000010  -0.000495   0.002602  -0.176309
  175  N 16  S    0.000008  -0.000119   0.002126  -0.005855   0.361422
  176  N 16  X    0.000009  -0.000024  -0.000532   0.001258  -0.041072
  177  N 16  Y    0.000001   0.000012  -0.000045   0.000627  -0.023627
  178  N 16  Z   -0.000000   0.000000   0.000000  -0.000000  -0.000000
  179  N 16  S   -0.000209   0.001069  -0.006127   0.000720   0.410499
  180  N 16  X    0.000007  -0.000078   0.004795  -0.001097  -0.034142
  181  N 16  Y    0.000051  -0.000585  -0.000863  -0.000844  -0.019025
  182  N 16  Z   -0.000000   0.000000   0.000000  -0.000000  -0.000000
  183  N 16 XX    0.000005   0.000065  -0.000103  -0.000187   0.009613
  184  N 16 YY    0.000005   0.000033   0.000388  -0.000279   0.009047
  185  N 16 ZZ   -0.000001  -0.000048   0.000236   0.000223  -0.018743
  186  N 16 XY   -0.000001   0.000012  -0.000171  -0.000004   0.000484
  187  N 16 XZ   -0.000000   0.000000   0.000000  -0.000000  -0.000000
  188  N 16 YZ   -0.000000   0.000000   0.000000  -0.000000  -0.000000
  189  H 17  S   -0.000014  -0.000462   0.003477  -0.004514   0.015681
  190  H 17  S    0.000029   0.000671  -0.007216   0.000047  -0.006182
  191  H 18  S   -0.000006   0.000036   0.000733  -0.001275   0.099842
  192  H 18  S    0.000015   0.000143   0.000575  -0.000347   0.004301
  193  H 19  S    0.000009  -0.000087   0.000100  -0.001495   0.100304
  194  H 19  S    0.000028   0.000020  -0.001114   0.000071   0.004947

                     16         17         18         19         20
                   -0.8569    -0.8083    -0.7575    -0.7354    -0.6472
                     A          A          A          A          A   
    1  C  1  S   -0.057239   0.072695   0.101643  -0.069761   0.037073
    2  C  1  S    0.108280  -0.140793  -0.199546   0.135969  -0.073643
    3  C  1  X   -0.017078   0.009201   0.054741   0.076169  -0.148332
    4  C  1  Y   -0.050438   0.036670   0.018867  -0.022092   0.005063
    5  C  1  Z   -0.000000  -0.000000  -0.000000   0.000000   0.000000
    6  C  1  S    0.072613  -0.090929  -0.150522   0.108625  -0.068153
    7  C  1  X   -0.010500   0.011015   0.003472   0.010652  -0.057928
    8  C  1  Y   -0.000541  -0.008845  -0.013986   0.001122   0.000224
    9  C  1  Z   -0.000000  -0.000000  -0.000000   0.000000   0.000000
   10  C  1 XX   -0.000035  -0.001672  -0.002340   0.000023   0.001954
   11  C  1 YY    0.003160  -0.001971  -0.001190   0.001639  -0.001583
   12  C  1 ZZ   -0.006600   0.007557   0.009929  -0.006958   0.003267
   13  C  1 XY    0.001741   0.000678  -0.005229  -0.007362   0.007001
   14  C  1 XZ   -0.000000  -0.000000  -0.000000   0.000000   0.000000
[...]
  123  C  9  X    0.000000  -0.000338  -0.000255  -0.000000  -0.000000
  124  C  9  Y    0.000000   0.002412   0.001751  -0.000000  -0.000000
  125  C  9  Z    0.000013  -0.000000   0.000000  -0.000392  -0.000914
  126  C  9  S    0.000000   0.003806   0.002776   0.000000  -0.000000
  127  C  9  X    0.000000   0.000547   0.000394   0.000000   0.000000
  128  C  9  Y   -0.000000   0.001159   0.000836  -0.000000  -0.000000
  129  C  9  Z    0.000012  -0.000000  -0.000000  -0.000389  -0.000761
  130  C  9 XX   -0.000000  -0.000102  -0.000073  -0.000000  -0.000000
  131  C  9 YY    0.000000   0.000029   0.000022   0.000000  -0.000000
  132  C  9 ZZ    0.000000  -0.000001  -0.000003  -0.000000  -0.000000
  133  C  9 XY    0.000000   0.000052   0.000040   0.000000   0.000000
  134  C  9 XZ   -0.000001  -0.000000   0.000000  -0.000001  -0.000005
  135  C  9 YZ    0.000001   0.000000   0.000000   0.000033  -0.000086
  136  C 10  S    0.000000   0.000234   0.000172   0.000000   0.000000
  137  C 10  S   -0.000000  -0.000459  -0.000336  -0.000000  -0.000000
  138  C 10  X   -0.000000   0.000531   0.000387  -0.000000  -0.000000
  139  C 10  Y   -0.000000  -0.001051  -0.000761  -0.000000  -0.000000
  140  C 10  Z    0.000000  -0.000000  -0.000000  -0.000226  -0.000050
  141  C 10  S   -0.000000  -0.001899  -0.001402  -0.000000  -0.000000
  142  C 10  X    0.000000   0.000758   0.000547  -0.000000  -0.000000
  143  C 10  Y   -0.000000  -0.000931  -0.000685  -0.000000  -0.000000
  144  C 10  Z   -0.000002  -0.000000  -0.000000  -0.000202  -0.000055
  145  C 10 XX    0.000000  -0.000074  -0.000053   0.000000   0.000000
  146  C 10 YY   -0.000000   0.000115   0.000083  -0.000000  -0.000000
  147  C 10 ZZ    0.000000   0.000019   0.000014  -0.000000   0.000000
  148  C 10 XY   -0.000000  -0.000015  -0.000011  -0.000000  -0.000000
  149  C 10 XZ   -0.000001   0.000000  -0.000000   0.000044   0.000085
  150  C 10 YZ    0.000000  -0.000000  -0.000000   0.000008   0.000015
  151  O 11  S    0.000000   0.000015   0.000010  -0.000000   0.000000
  152  O 11  S    0.000000  -0.000012  -0.000007  -0.000000  -0.000000
  153  O 11  X    0.000000   0.004353   0.003216   0.000000   0.000000
  154  O 11  Y    0.000000   0.006495   0.004793   0.000000   0.000000
  155  O 11  Z   -0.000003   0.000000  -0.000000   0.000560   0.001082
  156  O 11  S   -0.000000  -0.000324  -0.000222   0.000000   0.000000
  157  O 11  X   -0.000000   0.002938   0.002174   0.000000   0.000000
  158  O 11  Y    0.000000   0.004473   0.003302   0.000000   0.000000
  159  O 11  Z   -0.000001   0.000000  -0.000000   0.000433   0.000864
  160  O 11 XX    0.000000   0.000256   0.000190  -0.000000   0.000000
  161  O 11 YY    0.000000  -0.000248  -0.000185  -0.000000  -0.000000
  162  O 11 ZZ    0.000000   0.000019   0.000013  -0.000000  -0.000000
  163  O 11 XY    0.000000   0.000097   0.000072  -0.000000  -0.000000
  164  O 11 XZ    0.000000   0.000000  -0.000000   0.000027   0.000033
  165  O 11 YZ   -0.000001   0.000000   0.000000  -0.000019  -0.000022
  166  H 12  S   -0.000000  -0.000159  -0.000101   0.000000   0.000000
  167  H 12  S   -0.000000  -0.000707  -0.000504  -0.000000   0.000000
  168  H 13  S   -0.000000   0.000714   0.000514  -0.000000  -0.000000
  169  H 13  S    0.000000   0.000949   0.000683  -0.000000  -0.000000
  170  H 14  S    0.000000   0.000018   0.000010  -0.000000   0.000000
  171  H 14  S    0.000000   0.000151   0.000103   0.000000   0.000000
  172  H 15  S   -0.000000   0.000048   0.000036   0.000000  -0.000000
  173  H 15  S   -0.000000   0.000081   0.000056  -0.000000  -0.000000
  174  N 16  S   -0.000000   0.000069   0.000027   0.000000   0.000000
  175  N 16  S    0.000000  -0.000143  -0.000056  -0.000000  -0.000000
  176  N 16  X    0.000000   0.000323   0.000159  -0.000000   0.000000
  177  N 16  Y    0.000000   0.000030   0.000077  -0.000000  -0.000000
  178  N 16  Z   -0.000021   0.000000   0.000000   0.000304   0.000932
  179  N 16  S    0.000000  -0.000419  -0.000247   0.000000  -0.000000
  180  N 16  X    0.000000   0.000232   0.000129   0.000000   0.000000
  181  N 16  Y    0.000000   0.000080   0.000086  -0.000000  -0.000000
  182  N 16  Z   -0.000021   0.000000   0.000000   0.000353   0.000888
  183  N 16 XX   -0.000000   0.000025   0.000017   0.000000  -0.000000
  184  N 16 YY    0.000000  -0.000009  -0.000004  -0.000000   0.000000
  185  N 16 ZZ   -0.000000   0.000005   0.000001  -0.000000  -0.000000
  186  N 16 XY   -0.000000  -0.000014  -0.000008   0.000000   0.000000
  187  N 16 XZ   -0.000002   0.000000  -0.000000   0.000014   0.000021
  188  N 16 YZ   -0.000000   0.000000  -0.000000   0.000005   0.000011
  189  H 17  S    0.000000  -0.000043  -0.000040   0.000000   0.000000
  190  H 17  S    0.000000   0.000145   0.000095   0.000000   0.000000
  191  H 18  S    0.000000  -0.000051   0.000008  -0.000000  -0.000000
  192  H 18  S    0.000000  -0.000046  -0.000018   0.000000   0.000000
  193  H 19  S    0.000000   0.000162   0.000079  -0.000000  -0.000000
  194  H 19  S   -0.000000   0.000207   0.000124  -0.000000  -0.000000

                    191        192        193        194

    1  C  1  S    0.000000  -0.000000  -0.000000  -0.000000
    2  C  1  S   -0.000000  -0.000000   0.000000   0.000000
    3  C  1  X   -0.000000  -0.000000   0.000000   0.000000
    4  C  1  Y    0.000000   0.000000  -0.000000  -0.000000
    5  C  1  Z    0.000097   0.000172  -0.000044  -0.000376
    6  C  1  S    0.000000   0.000000  -0.000000   0.000000
    7  C  1  X   -0.000000  -0.000000   0.000000   0.000000
    8  C  1  Y   -0.000000  -0.000000   0.000000  -0.000000
    9  C  1  Z    0.000100   0.000168  -0.000053  -0.000309
   10  C  1 XX   -0.000000  -0.000000   0.000000   0.000000
   11  C  1 YY   -0.000000   0.000000  -0.000000  -0.000000
   12  C  1 ZZ    0.000000  -0.000000   0.000000  -0.000000
   13  C  1 XY    0.000000  -0.000000   0.000000  -0.000000
   14  C  1 XZ   -0.000012  -0.000026   0.000027   0.000051
   15  C  1 YZ    0.000002   0.000009  -0.000008  -0.000002
   16  C  2  S   -0.000000   0.000000   0.000000   0.000000
   17  C  2  S    0.000000  -0.000000  -0.000000  -0.000000
   18  C  2  X    0.000000  -0.000000   0.000000   0.000000
   19  C  2  Y    0.000000  -0.000000  -0.000000  -0.000000
   20  C  2  Z    0.000061   0.000256  -0.000105  -0.000463
   21  C  2  S   -0.000000  -0.000000   0.000000  -0.000000
   22  C  2  X   -0.000000  -0.000000   0.000000   0.000000
   23  C  2  Y   -0.000000  -0.000000   0.000000   0.000000
   24  C  2  Z    0.000036   0.000138  -0.000068  -0.000269
   25  C  2 XX   -0.000000  -0.000000   0.000000   0.000000
   26  C  2 YY    0.000000   0.000000  -0.000000  -0.000000
   27  C  2 ZZ    0.000000   0.000000  -0.000000  -0.000000
   28  C  2 XY   -0.000000   0.000000   0.000000   0.000000
   29  C  2 XZ    0.000008   0.000020  -0.000009  -0.000039
   30  C  2 YZ    0.000004  -0.000009  -0.000003   0.000007
   31  C  3  S   -0.000000  -0.000000  -0.000000  -0.000000
   32  C  3  S    0.000000   0.000000  -0.000000   0.000000
   33  C  3  X    0.000000  -0.000000  -0.000000  -0.000000
   34  C  3  Y   -0.000000   0.000000   0.000000  -0.000000
   35  C  3  Z   -0.000029   0.000225  -0.000042  -0.000251
   36  C  3  S   -0.000000  -0.000000   0.000000   0.000000
   37  C  3  X   -0.000000  -0.000000   0.000000   0.000000
   38  C  3  Y   -0.000000   0.000000   0.000000  -0.000000
   39  C  3  Z   -0.000018   0.000179  -0.000039  -0.000224
   40  C  3 XX   -0.000000  -0.000000   0.000000   0.000000
   41  C  3 YY    0.000000   0.000000  -0.000000  -0.000000
   42  C  3 ZZ    0.000000  -0.000000  -0.000000  -0.000000
   43  C  3 XY    0.000000  -0.000000   0.000000   0.000000
   44  C  3 XZ    0.000000   0.000008  -0.000001  -0.000013
   45  C  3 YZ    0.000004   0.000009  -0.000007  -0.000026
   46  C  4  S    0.000000   0.000000   0.000000   0.000000
   47  C  4  S   -0.000000  -0.000000   0.000000  -0.000000
   48  C  4  X   -0.000000  -0.000000   0.000000  -0.000000
   49  C  4  Y   -0.000000  -0.000000   0.000000   0.000000
   50  C  4  Z   -0.000022   0.000079   0.000020   0.000094
   51  C  4  S    0.000000   0.000000  -0.000000  -0.000000
   52  C  4  X   -0.000000  -0.000000  -0.000000   0.000000
   53  C  4  Y    0.000000   0.000000  -0.000000  -0.000000
   54  C  4  Z   -0.000015   0.000064   0.000013   0.000060
   55  C  4 XX    0.000000   0.000000  -0.000000   0.000000
   56  C  4 YY   -0.000000   0.000000   0.000000  -0.000000
   57  C  4 ZZ   -0.000000  -0.000000   0.000000   0.000000
   58  C  4 XY    0.000000   0.000000  -0.000000  -0.000000
   59  C  4 XZ    0.000000  -0.000015   0.000004   0.000020
   60  C  4 YZ   -0.000001   0.000001  -0.000000  -0.000002
   61  C  5  S   -0.000000  -0.000000   0.000000  -0.000000
   62  C  5  S    0.000000   0.000000  -0.000000   0.000000
   63  C  5  X    0.000000   0.000000   0.000000   0.000000
   64  C  5  Y    0.000000   0.000000  -0.000000  -0.000000
   65  C  5  Z    0.000040  -0.000098   0.000052   0.000321
   66  C  5  S   -0.000000   0.000000   0.000000   0.000000
   67  C  5  X    0.000000   0.000000  -0.000000  -0.000000
   68  C  5  Y   -0.000000  -0.000000   0.000000   0.000000
   69  C  5  Z    0.000033  -0.000085   0.000047   0.000268
   70  C  5 XX   -0.000000  -0.000000   0.000000   0.000000
   71  C  5 YY    0.000000   0.000000  -0.000000  -0.000000
   72  C  5 ZZ   -0.000000  -0.000000   0.000000  -0.000000
   73  C  5 XY    0.000000  -0.000000   0.000000  -0.000000
   74  C  5 XZ   -0.000002  -0.000007   0.000000   0.000001
   75  C  5 YZ    0.000006  -0.000000  -0.000003  -0.000004
   76  C  6  S   -0.000000  -0.000000  -0.000000  -0.000000
   77  C  6  S    0.000000   0.000000   0.000000   0.000000
   78  C  6  X    0.000000   0.000000  -0.000000  -0.000000
   79  C  6  Y   -0.000000  -0.000000   0.000000   0.000000
   80  C  6  Z   -0.000017  -0.000172  -0.000013   0.000035
   81  C  6  S    0.000000   0.000000   0.000000  -0.000000
   82  C  6  X    0.000000   0.000000   0.000000   0.000000
   83  C  6  Y   -0.000000  -0.000000   0.000000   0.000000
   84  C  6  Z    0.000009  -0.000094   0.000007   0.000046
   85  C  6 XX   -0.000000  -0.000000   0.000000   0.000000
   86  C  6 YY    0.000000   0.000000   0.000000   0.000000
   87  C  6 ZZ    0.000000   0.000000  -0.000000  -0.000000
   88  C  6 XY   -0.000000  -0.000000  -0.000000  -0.000000
   89  C  6 XZ   -0.000023  -0.000024  -0.000022  -0.000016
   90  C  6 YZ   -0.000019  -0.000026  -0.000009  -0.000016
   91  O  7  S    0.000000   0.000000  -0.000000  -0.000000
   92  O  7  S   -0.000000  -0.000000   0.000000   0.000000
   93  O  7  X   -0.000000   0.000000  -0.000000  -0.000000
   94  O  7  Y    0.000000  -0.000000  -0.000000  -0.000000
   95  O  7  Z   -0.000085  -0.000319   0.000165   0.000639
   96  O  7  S   -0.000000  -0.000000   0.000000   0.000000
   97  O  7  X    0.000000   0.000000  -0.000000  -0.000000
   98  O  7  Y    0.000000   0.000000  -0.000000  -0.000000
   99  O  7  Z   -0.000069  -0.000263   0.000136   0.000515
  100  O  7 XX    0.000000   0.000000  -0.000000  -0.000000
  101  O  7 YY    0.000000   0.000000   0.000000   0.000000
  102  O  7 ZZ    0.000000   0.000000  -0.000000  -0.000000
  103  O  7 XY    0.000000  -0.000000   0.000000   0.000000
  104  O  7 XZ    0.000004   0.000009  -0.000010  -0.000025
  105  O  7 YZ    0.000002   0.000009  -0.000000  -0.000018
  106  C  8  S   -0.000000  -0.000000   0.000000   0.000000
  107  C  8  S    0.000000   0.000000  -0.000000  -0.000000
  108  C  8  X    0.000000   0.000000  -0.000000  -0.000000
  109  C  8  Y    0.000000   0.000000  -0.000000  -0.000000
  110  C  8  Z    0.000042   0.000180  -0.000093  -0.000259
  111  C  8  S    0.000000   0.000000  -0.000000  -0.000000
  112  C  8  X   -0.000000   0.000000   0.000000  -0.000000
  113  C  8  Y    0.000000   0.000000  -0.000000  -0.000000
  114  C  8  Z    0.000030   0.000111  -0.000071  -0.000175
  115  C  8 XX   -0.000000  -0.000000   0.000000   0.000000
  116  C  8 YY    0.000000   0.000000  -0.000000  -0.000000
  117  C  8 ZZ    0.000000   0.000000  -0.000000  -0.000000
  118  C  8 XY   -0.000000  -0.000000  -0.000000   0.000000
  119  C  8 XZ   -0.000010  -0.000047   0.000032   0.000090
  120  C  8 YZ    0.000001   0.000028  -0.000005  -0.000023
  121  C  9  S   -0.000000  -0.000000   0.000000   0.000000
  122  C  9  S    0.000000   0.000000  -0.000000  -0.000000
  123  C  9  X    0.000000  -0.000000  -0.000000  -0.000000
  124  C  9  Y    0.000000   0.000000  -0.000000  -0.000000
  125  C  9  Z   -0.000003  -0.000245   0.000037   0.000294
  126  C  9  S    0.000000   0.000000  -0.000000  -0.000000
  127  C  9  X    0.000000   0.000000  -0.000000  -0.000000
  128  C  9  Y   -0.000000  -0.000000   0.000000  -0.000000
  129  C  9  Z    0.000006  -0.000199   0.000032   0.000253
  130  C  9 XX   -0.000000  -0.000000   0.000000   0.000000
  131  C  9 YY    0.000000   0.000000  -0.000000  -0.000000
  132  C  9 ZZ    0.000000  -0.000000  -0.000000  -0.000000
  133  C  9 XY    0.000000   0.000000  -0.000000  -0.000000
  134  C  9 XZ   -0.000004  -0.000014   0.000005   0.000006
  135  C  9 YZ    0.000006   0.000011  -0.000012  -0.000029
  136  C 10  S    0.000000   0.000000  -0.000000  -0.000000
  137  C 10  S   -0.000000  -0.000000   0.000000   0.000000
  138  C 10  X   -0.000000  -0.000000   0.000000   0.000000
  139  C 10  Y   -0.000000  -0.000000   0.000000   0.000000
  140  C 10  Z   -0.000041  -0.000155   0.000082   0.000316
  141  C 10  S   -0.000000  -0.000000   0.000000   0.000000
  142  C 10  X    0.000000   0.000000   0.000000  -0.000000
  143  C 10  Y   -0.000000  -0.000000   0.000000   0.000000
  144  C 10  Z   -0.000041  -0.000147   0.000077   0.000273
  145  C 10 XX    0.000000   0.000000   0.000000   0.000000
  146  C 10 YY   -0.000000  -0.000000  -0.000000  -0.000000
  147  C 10 ZZ    0.000000   0.000000  -0.000000  -0.000000
  148  C 10 XY    0.000000   0.000000  -0.000000   0.000000
  149  C 10 XZ    0.000000   0.000024  -0.000004  -0.000014
  150  C 10 YZ    0.000000   0.000003  -0.000001   0.000007
  151  O 11  S    0.000000   0.000000  -0.000000  -0.000000
  152  O 11  S    0.000000  -0.000000   0.000000   0.000000
  153  O 11  X    0.000000   0.000000  -0.000000  -0.000000
  154  O 11  Y    0.000000   0.000000  -0.000000  -0.000000
  155  O 11  Z    0.000062   0.000551  -0.000180  -0.000769
  156  O 11  S   -0.000000  -0.000000   0.000000   0.000000
  157  O 11  X   -0.000000   0.000000   0.000000  -0.000000
  158  O 11  Y    0.000000   0.000000  -0.000000  -0.000000
  159  O 11  Z    0.000047   0.000399  -0.000136  -0.000566
  160  O 11 XX    0.000000   0.000000  -0.000000  -0.000000
  161  O 11 YY    0.000000  -0.000000  -0.000000   0.000000
  162  O 11 ZZ    0.000000   0.000000  -0.000000  -0.000000
  163  O 11 XY    0.000000   0.000000  -0.000000  -0.000000
  164  O 11 XZ    0.000005   0.000024  -0.000011  -0.000036
  165  O 11 YZ   -0.000003  -0.000018   0.000009   0.000029
  166  H 12  S   -0.000000   0.000000   0.000000   0.000000
  167  H 12  S   -0.000000   0.000000   0.000000   0.000000
  168  H 13  S    0.000000  -0.000000  -0.000000  -0.000000
  169  H 13  S    0.000000   0.000000  -0.000000  -0.000000
  170  H 14  S    0.000000   0.000000   0.000000  -0.000000
  171  H 14  S    0.000000   0.000000   0.000000  -0.000000
  172  H 15  S   -0.000000  -0.000000   0.000000   0.000000
  173  H 15  S   -0.000000  -0.000000   0.000000   0.000000
  174  N 16  S    0.000000   0.000000   0.000000   0.000000
  175  N 16  S   -0.000000  -0.000000   0.000000  -0.000000
  176  N 16  X    0.000000   0.000000   0.000000  -0.000000
  177  N 16  Y    0.000000   0.000000  -0.000000   0.000000
  178  N 16  Z   -0.000149  -0.000294   0.000035  -0.000019
  179  N 16  S   -0.000000  -0.000000  -0.000000  -0.000000
  180  N 16  X    0.000000   0.000000   0.000000  -0.000000
  181  N 16  Y    0.000000   0.000000   0.000000   0.000000
  182  N 16  Z   -0.000127  -0.000222   0.000010  -0.000025
  183  N 16 XX   -0.000000  -0.000000   0.000000   0.000000
  184  N 16 YY    0.000000   0.000000  -0.000000  -0.000000
  185  N 16 ZZ    0.000000   0.000000   0.000000   0.000000
  186  N 16 XY    0.000000   0.000000  -0.000000  -0.000000
  187  N 16 XZ   -0.000011   0.000005   0.000020   0.000016
  188  N 16 YZ    0.000032   0.000018  -0.000010  -0.000011
  189  H 17  S    0.000000   0.000000   0.000000  -0.000000
  190  H 17  S    0.000000   0.000000   0.000000  -0.000000
  191  H 18  S    0.000000   0.000000  -0.000000  -0.000000
  192  H 18  S    0.000000   0.000000  -0.000000  -0.000000
  193  H 19  S   -0.000000  -0.000000   0.000000  -0.000000
  194  H 19  S   -0.000000  -0.000000   0.000000   0.000000

          -------------------
          SINGLET EXCITATIONS
          -------------------

 STATE #   1  ENERGY =    3.984216 EV
 OSCILLATOR STRENGTH =    0.356551
 LAMBDA DIAGNOSTIC   =    0.711 (RYDBERG/CHARGE TRANSFER CHARACTER)
 SYMMETRY OF STATE   =    A   
                 EXCITATION  DE-EXCITATION
     OCC     VIR  AMPLITUDE      AMPLITUDE
      I       A     X(I->A)        Y(A->I)
     ---     ---   --------       --------
     39      43   -0.047333      -0.022612
     42      43   -0.977990       0.092049
     41      44   -0.155720      -0.027901
     39      45    0.039011       0.003314
     41      45   -0.097500      -0.026333
     42      45   -0.081283      -0.016211
     38      48   -0.030263      -0.014480

 STATE #   2  ENERGY =    4.479229 EV
 OSCILLATOR STRENGTH =    0.000105
 LAMBDA DIAGNOSTIC   =    0.379 (RYDBERG/CHARGE TRANSFER CHARACTER)
 SYMMETRY OF STATE   =    A   
                 EXCITATION  DE-EXCITATION
     OCC     VIR  AMPLITUDE      AMPLITUDE
      I       A     X(I->A)        Y(A->I)
     ---     ---   --------       --------
     40      43    0.977553      -0.013835
     40      45    0.193301      -0.009463
     40      48   -0.073460       0.006025

                          SUMMARY OF TDDFT RESULTS

   STATE             ENERGY     EXCITATION  TRANSITION DIPOLE, A.U.  OSCILLATOR
                    HARTREE          EV         X       Y       Z     STRENGTH
   0  A         -552.0675728920    0.000
   1  A         -551.9211556592    3.984     1.9083  0.1054 -0.0000    0.357
   2  A         -551.9029642374    4.479    -0.0000 -0.0000 -0.0309    0.000
  
 SELECTING EXCITED STATE IROOT=   1 AT E=     -551.9211556592
 AS THE STATE OF INTEREST.

 ..... DONE WITH TD-DFT EXCITATION ENERGIES .....
 CPU     0: STEP CPU TIME=    14.34 TOTAL CPU TIME=       30.6 (    0.5 MIN)
 TOTAL WALL CLOCK TIME=       32.8 SECONDS, CPU UTILIZATION IS  93.41%
              3991284  WORDS OF DYNAMIC MEMORY USED
 EXECUTION OF GAMESS TERMINATED NORMALLY Tue Oct 25 14:23:26 2016
 DDI: 263640 bytes (0.3 MB / 0 MWords) used by master data server.

 ----------------------------------------
 CPU timing information for all processes
 ========================================
 0: 30.328 + 0.288 = 30.616
 1: 28.928 + 0.288 = 29.216
 2: 28.812 + 0.252 = 29.64
 3: 28.168 + 0.308 = 28.476
 4: 28.536 + 0.336 = 28.872
 5: 28.436 + 0.272 = 28.708
 6: 28.352 + 0.308 = 28.660
 7: 27.904 + 0.276 = 28.180
 8: 28.420 + 0.340 = 28.760
 9: 27.704 + 0.252 = 27.956
 10: 28.128 + 0.284 = 28.412
 11: 28.48 + 0.228 = 28.276
 12: 27.660 + 0.304 = 27.964
 13: 28.88 + 0.256 = 28.344
 14: 28.32 + 0.276 = 28.308
 15: 27.900 + 0.252 = 28.152
 16: 0.196 + 2.240 = 2.436
 17: 0.00 + 0.00 = 0.00
 18: 0.00 + 0.00 = 0.00
 19: 0.00 + 0.00 = 0.00
 20: 0.00 + 0.00 = 0.00
 21: 0.00 + 0.00 = 0.00
 22: 0.00 + 0.00 = 0.00
 23: 0.00 + 0.00 = 0.00
 24: 0.00 + 0.00 = 0.00
 25: 0.00 + 0.00 = 0.00
 26: 0.00 + 0.00 = 0.00
 27: 0.00 + 0.00 = 0.00
 28: 0.00 + 0.00 = 0.00
 29: 0.00 + 0.00 = 0.00
 30: 0.00 + 0.00 = 0.00
 31: 0.00 + 0.00 = 0.00
 ----------------------------------------
 ddikick.x: exited gracefully.
